ITEM: TIMESTEP
604600
ITEM: NUMBER OF ATOMS
28300
ITEM: BOX BOUNDS pp pp pp
0.0000000000000000e+00 1.0
0.0000000000000000e+00 1.0
0.0000000000000000e+00 1.0
ITEM: ATOMS id type xs ys zs
27485 2 0.261225 0.0580879 0.210147
18095 2 0.193991 0.0561119 0.113918
28196 2 0.219407 0.00313053 0.0103439
2339 2 0.225795 0.110309 0.0939568
19838 2 0.205139 0.193824 0.121299
7486 2 0.0844412 0.173601 0.0733977
19827 2 0.0185109 0.232479 0.244615
14246 2 0.115984 0.0123006 0.0138048
2748 2 0.276823 0.124073 0.0462053
19842 2 0.0453279 0.0961164 0.111447
9295 2 0.127296 0.0242955 0.160219
17782 2 0.127529 0.0754058 0.180446
6298 2 0.228038 0.157992 0.0754554
27000 2 0.262607 0.121628 0.13359
20348 2 0.0280982 0.223161 0.0417259
2747 2 0.278666 0.148549 0.0693875
26998 2 0.259495 0.134923 0.126327
22994 2 0.183223 0.220718 0.132863
21329 2 0.0841674 0.186719 0.0725289
12989 2 0.0448661 0.0818749 0.0982805
16832 2 0.316777 0.0161171 0.204903
24043 2 0.00380634 0.0369466 0.225565
17448 2 0.11757 0.13641 0.0473838
23782 2 0.0440329 0.0133433 0.0975393
26986 2 0.224565 0.0635601 0.0846988
22594 2 0.014601 0.201944 0.18448
17794 2 0.198646 0.0114396 0.0460609
13884 2 0.167083 0.108352 0.231267
15785 2 0.0997167 0.23095 0.156534
21326 2 0.0351597 0.129332 0.140236
17787 2 0.183787 0.150032 0.11466
15486 2 0.0144814 0.231019 0.16217
5399 2 0.104077 0.0410928 0.239034
28197 2 0.173291 0.0331503 0.0809206
19839 2 0.195 0.0548337 0.142501
23799 2 0.0019796 0.0962668 0.188163
17778 2 0.0552184 0.0604945 0.105553
1089 2 0.0833764 0.146785 0.0833155
28200 2 0.199869 0.103783 0.189448
9289 2 0.300455 0.00957467 0.178596
22996 2 0.209201 0.160145 0.0625706
6296 2 0.269123 0.203402 0.030003
488 2 0.275511 0.218771 0.0148551
26999 2 0.281839 0.124503 0.168014
18096 2 0.165104 0.139913 0.108367
25693 2 0.293322 0.0888236 0.219645
2345 2 0.252295 0.0734717 0.0737751
9290 2 0.294586 0.0139908 0.162945
17789 2 0.195781 0.0791037 0.0739958
24640 2 0.17431 0.0814292 0.0116447
17785 2 0.147043 0.198517 0.145401
23991 2 0.0163785 0.175601 0.136174
23788 2 0.000411284 0.11479 0.0895437
7184 2 0.178868 0.164327 0.030068
2341 2 0.240904 0.113503 0.0468853
23992 2 0.0778186 0.16742 0.0772296
28198 2 0.22849 0.0167995 0.11783
24638 2 0.122412 0.108904 0.0305758
17193 2 0.0157314 0.0826952 0.0287187
23780 2 0.0388445 0.0771161 0.0224687
26997 2 0.258742 0.0924795 0.0803984
6294 2 0.264035 0.138067 0.0807151
21689 2 0.0953485 0.146402 0.0117877
24898 2 0.109902 0.0157984 0.245777
17442 2 0.0424344 0.0338476 0.128185
4534 2 0.131334 0.179667 0.113608
15898 2 0.128542 0.0741959 0.0743671
18097 2 0.246852 0.0970573 0.0888699
23995 2 0.0583284 0.122612 0.0312148
16833 2 0.319376 0.00475059 0.169808
21687 2 0.17956 0.242009 0.0443146
17045 2 0.134871 0.100601 0.0878508
22742 2 0.281067 0.126438 0.0817929
7599 2 0.00413243 0.221681 0.133501
22997 2 0.199543 0.204591 0.108731
21690 2 0.0490578 0.106812 0.0293753
24636 2 0.0168874 0.0702846 0.0818138
27540 2 0.132416 0.0532884 0.0408452
23784 2 0.0595659 0.0194598 0.134459
11996 2 0.0387883 0.114638 0.235406
5396 2 0.176987 0.0234867 0.184528
17447 2 0.143116 0.0926121 0.0757939
17446 2 0.12785 0.0877882 0.0494954
23781 2 0.0666975 0.0658057 0.0820153
17048 2 0.181474 0.104455 0.0560951
13883 2 0.156179 0.0918425 0.217705
4535 2 0.126789 0.183805 0.0569825
19347 2 0.244329 0.134113 0.0128582
2337 2 0.257669 0.00459408 0.235354
17044 2 0.0848348 0.061103 0.0733101
18099 2 0.17132 0.100958 0.00256654
24000 2 0.127516 0.123056 0.0439173
1478 2 0.0809209 0.221642 0.133679
141 2 0.31171 0.00600508 0.0493111
7485 2 0.0788188 0.200062 0.0842587
7487 2 0.100194 0.133086 0.0249794
19349 2 0.202063 0.079239 0.0658068
14245 2 0.147968 0.00966319 0.0536367
27536 2 0.0407062 0.00611807 0.0496939
17049 2 0.204709 0.029908 0.103644
20349 2 0.0522462 0.207259 0.0485481
17786 2 0.142376 0.169443 0.0719717
10480 2 0.0191359 0.161784 0.173894
7388 2 0.135035 0.0253848 0.208655
17443 2 0.0873997 0.0402104 0.18985
22993 2 0.242809 0.217322 0.130253
17788 2 0.184534 0.115921 0.0854381
23996 2 0.082704 0.158753 0.0416254
2342 2 0.315827 0.0909221 0.129279
21045 2 0.203401 0.187845 0.0450585
21330 2 0.14549 0.199376 0.124418
2344 2 0.261257 0.0309376 0.0892155
24044 2 0.0112926 0.0547439 0.207744
15494 2 0.0122732 0.235423 0.0611542
9888 2 0.102356 0.0121194 0.211259
2340 2 0.23028 0.0215976 0.069812
21047 2 0.143712 0.0697458 0.0531248
7389 2 0.154627 0.0055498 0.24367
20343 2 0.0130312 0.17854 0.0865587
12987 2 0.0313068 0.039107 0.104575
17776 2 0.00579698 0.131976 0.188368
1480 2 0.117436 0.145711 0.14769
6297 2 0.26855 0.216091 0.0683395
11088 2 0.259386 0.0303227 0.0551784
18092 2 0.119324 0.0587233 0.182178
17194 2 0.00723717 0.0140696 0.0481697
20344 2 0.0275963 0.204419 0.101076
1479 2 0.0948865 0.190648 0.163456
17449 2 0.0426622 0.179607 0.0455681
21682 2 0.231446 0.193962 0.0557637
23794 2 0.0144311 0.110835 0.0752084
24041 2 0.0416406 0.0713728 0.135872
17043 2 0.119193 0.015242 0.00731592
9292 2 0.189313 0.0338884 0.113626
23236 2 0.0631626 0.00342663 0.209425
1092 2 0.124738 0.0767626 0.0926822
4384 2 0.246009 0.0382424 0.224123
18093 2 0.17357 0.00934338 0.126635
850 2 0.0404411 0.122505 0.0221712
23792 2 0.0197751 0.137227 0.0349816
24198 2 0.108849 0.148103 0.11218
11683 2 0.0115766 0.00751619 0.12335
5394 2 0.134022 0.091965 0.234897
6350 2 0.18133 0.0935538 0.18621
25694 2 0.286825 0.133716 0.174152
15897 2 0.17235 0.0527464 0.00307795
24637 2 0.0591248 0.0789755 0.108715
11997 2 0.0421159 0.0786881 0.14163
1090 2 0.107341 0.0888922 0.111785
7386 2 0.13932 0.0716731 0.151436
11087 2 0.303989 0.00665731 0.0681718
5395 2 0.146254 0.0236489 0.194119
24199 2 0.239731 0.157441 0.162067
2343 2 0.17899 0.0769849 0.139844
17797 2 0.273198 0.00957006 0.159633
20341 2 0.0496101 0.208907 0.129991
23787 2 0.0520108 0.120687 0.0984249
4538 2 0.144969 0.117147 0.0389237
17781 2 0.141061 0.10055 0.153319
26979 2 0.260469 0.171873 0.0564128
2996 2 0.132922 0.219185 0.0254311
12988 2 0.043125 0.0685881 0.0594811
8429 2 0.0452179 0.198861 0.232229
13882 2 0.0702849 0.104741 0.18336
4532 2 0.0334802 0.243346 0.152244
19350 2 0.289122 0.048826 0.0980717
497 2 0.296727 0.137624 0.0158835
23999 2 0.0636154 0.19629 0.0125997
23997 2 0.0997117 0.137939 0.0631841
27538 2 0.087362 0.00953724 0.0634815
18091 2 0.1418 0.0585537 0.207921
23677 2 0.287717 0.190814 0.100976
7596 2 0.00901655 0.236618 0.111596
23300 2 0.245896 0.233748 0.0216965
17450 2 0.0490613 0.165163 0.0562273
14340 2 0.215006 0.0272767 0.101094
26941 2 0.112584 0.00324311 0.152983
17780 2 0.105365 0.0522214 0.0719299
23993 2 0.0508642 0.13617 0.0540221
12981 2 0.114326 0.084733 0.0316254
21328 2 0.00958558 0.192863 0.0606539
12980 2 0.0740771 0.0526534 0.0238094
17420 1 0.0604936 0.16179 0.153092
2335 2 0.181712 0.0379201 0.103967
6349 2 0.156827 0.136231 0.195266
496 2 0.293166 0.194868 0.00453694
23789 2 0.054144 0.113157 0.00393406
21688 2 0.167008 0.140323 0.0206963
9291 2 0.27228 0.0223364 0.161641
13849 2 0.116755 0.224716 0.0986418
26980 2 0.225755 0.162908 0.0805034
11682 2 0.0287443 0.0383205 0.160773
25692 2 0.32543 0.151424 0.23056
24040 2 0.0237842 0.0347293 0.0694983
23786 2 0.100639 0.117181 0.109318
28199 2 0.19077 0.0727955 0.155903
1091 2 0.144925 0.0961341 0.111215
25892 2 0.081808 0.0151947 0.0406851
23676 2 0.248886 0.121291 0.0977505
24634 2 0.000916637 0.000211697 0.111602
17790 2 0.154476 0.0562456 0.0934451
28289 2 0.276285 0.0410306 0.228544
2336 2 0.181095 0.0450392 0.13202
21677 2 0.297022 0.164233 0.12026
18139 2 0.180971 0.205516 0.0538875
12646 2 0.172825 0.0344608 0.196743
8536 2 0.256656 0.168681 0.0300812
22995 2 0.215016 0.102197 0.0503828
7294 2 0.312049 0.0973262 0.249516
24045 2 0.00073749 0.089687 0.181339
18131 2 0.244952 0.241798 0.0664118
4899 2 0.295474 0.207316 0.0748193
26984 2 0.229795 0.115959 0.00143815
1733 2 0.320004 0.0382104 0.0450315
18146 2 0.115302 0.0331529 0.0190042
17419 1 0.0188409 0.172905 0.164357
22743 2 0.331046 0.233701 0.0397835
15626 2 0.297695 0.13959 0.162992
21686 2 0.220374 0.200177 0.108226
24046 2 0.0433323 0.0132413 0.196368
9979 2 0.212024 0.192552 0.0677236
26995 2 0.203685 0.033294 0.0938856
23391 2 0.231909 0.0852156 0.040936
20930 2 0.0105854 0.138675 0.0813925
5097 2 0.260187 0.222285 0.233848
22737 2 0.281426 0.177504 0.070029
17192 2 0.0198073 0.0322313 0.0204431
17444 2 0.11332 0.00211659 0.0911039
25799 2 0.301811 0.0877847 0.0704556
23680 2 0.223496 0.218822 0.21911
18094 2 0.19476 0.0841154 0.167318
18577 2 0.291129 0.0852476 0.18793
20687 2 0.151792 0.242654 0.0876456
22992 2 0.242245 0.203734 0.140248
8039 2 0.225647 0.0356548 0.100061
6295 2 0.26998 0.163951 0.0468358
15630 2 0.323511 0.166164 0.226972
12984 2 0.0143514 0.0679168 0.0867007
12983 2 0.0370313 0.0166958 0.0493575
21041 2 0.104846 0.175303 0.00714789
5090 2 0.290392 0.171835 0.217571
23785 2 0.065419 0.0473985 0.103005
3238 2 0.0857564 0.123539 0.162072
6293 2 0.223574 0.153993 0.197639
11180 2 0.216994 0.0276313 0.140952
21680 2 0.23375 0.158618 0.0266645
27127 2 0.0361541 0.0702061 0.0381202
11976 2 0.317283 0.177705 0.123384
26992 2 0.219263 0.0539952 0.066085
27128 2 0.0340429 0.00256815 0.0133951
16837 2 0.306351 0.109197 0.226645
25999 2 0.233091 0.0804945 0.147203
11177 2 0.312221 0.0149684 0.1522
26985 2 0.230507 0.102272 0.0437283
12986 2 0.0280341 0.0847877 0.0657174
4392 2 0.308518 0.0414267 0.24209
11686 2 0.0418069 0.0647848 0.0446714
27545 2 0.273449 0.0695134 0.0734449
8949 2 0.300289 0.0642107 0.0927929
9976 2 0.296572 0.118271 0.144906
22735 2 0.313873 0.107172 0.0207233
25891 2 0.0389481 0.0258127 0.0402334
25350 2 0.28359 0.0699274 0.0234269
17796 2 0.256935 0.0313822 0.0533514
7189 2 0.198251 0.215223 0.0213543
15400 2 0.288371 0.10283 0.0787132
21679 2 0.291259 0.0991483 0.0330301
14050 2 0.323433 0.0790228 0.00573097
25996 2 0.185129 0.150195 0.190711
21684 2 0.188231 0.164616 0.0543859
3692 2 0.298887 0.230012 0.219746
8920 1 0.329134 0.167717 0.0303727
2338 2 0.24366 0.0519233 0.169531
15625 1 0.322224 0.0836972 0.227714
7291 2 0.268974 0.200413 0.239948
1482 2 0.108374 0.184007 0.194118
3237 2 0.0296383 0.0705552 0.137045
14243 2 0.0851357 0.0682507 0.00291146
18141 2 0.209126 0.0933835 0.0288427
1735 2 0.298015 0.00203846 0.0297101
28290 2 0.277651 0.0385901 0.176302
22589 2 0.0269011 0.154475 0.233322
23393 2 0.277488 0.0610183 0.0135692
498 2 0.218931 0.1656 0.00129175
2998 2 0.309616 0.23959 0.0162308
8596 2 0.320851 0.0799264 0.0155226
5098 2 0.243892 0.192175 0.21684
4385 2 0.159973 0.00424684 0.209673
22739 2 0.316812 0.227391 0.0829685
9974 1 0.315448 0.122179 0.101669
6292 2 0.280519 0.201439 0.178084
3935 2 0.0254474 0.0147116 0.238807
20480 2 0.263195 0.116721 0.11922
7384 2 0.134277 0.0728709 0.216805
20486 2 0.297615 0.125818 0.234598
25349 2 0.210847 0.0687993 0.0360209
24196 2 0.126003 0.196125 0.155547
7186 2 0.196699 0.188804 0.0257484
9978 2 0.213664 0.165752 0.118654
25699 2 0.126977 0.145025 0.0865611
12647 2 0.176616 0.0524291 0.185231
17795 2 0.213758 0.067214 0.0850099
16840 2 0.320262 0.032318 0.163753
4897 2 0.239205 0.240234 0.12857
4900 2 0.283079 0.109688 0.0361783
21681 2 0.165877 0.137939 0.074592
9892 2 0.127374 0.171691 0.178196
18098 2 0.212759 0.0927037 0.00833426
19497 2 0.0600302 0.241829 0.182266
2742 2 0.329373 0.0895689 0.195666
18142 2 0.182559 0.0401184 0.00723641
6596 2 0.101185 0.233349 0.167441
15899 2 0.129411 0.0576295 0.0728486
16839 2 0.29821 0.0517766 0.148244
18147 2 0.124294 0.0138273 0.0501215
26550 2 0.150818 0.22331 0.211374
25997 2 0.20343 0.138002 0.175162
21332 2 0.113201 0.149544 0.150952
2999 2 0.275437 0.174726 0.0780951
26993 2 0.21774 0.0664363 0.0992563
20483 2 0.323595 0.108691 0.169519
24181 2 0.0163459 0.182679 0.2327
25700 2 0.18124 0.160105 0.0772574
22578 2 0.0273845 0.207376 0.0229791
20484 2 0.270474 0.11691 0.152708
7594 2 0.077682 0.183597 0.00428061
3691 2 0.273955 0.21496 0.230338
900 2 0.201291 0.120332 0.00444509
15786 2 0.0916441 0.202495 0.0837618
10787 2 0.236267 0.190775 0.231859
1485 2 0.101655 0.246005 0.210098
5392 2 0.0811883 0.0274517 0.216667
25695 2 0.281853 0.0994175 0.101804
19348 2 0.218851 0.0370446 0.0247053
21049 2 0.129298 0.0330045 0.0956356
24894 2 0.148895 0.114362 0.214405
27543 2 0.197304 0.0750604 0.0450645
6299 2 0.272876 0.190432 0.062285
21048 2 0.140753 0.0677176 0.0802488
6346 2 0.100961 0.184642 0.174454
15399 2 0.324803 0.0848197 0.0697986
23998 2 0.11349 0.140508 0.0602536
5900 2 0.0657721 0.245729 0.133472
9977 2 0.277112 0.166712 0.133417
15900 2 0.171983 0.0151147 0.185599
7288 2 0.312518 0.195687 0.241226
23392 2 0.300032 0.0895347 0.0192577
7490 2 0.0726125 0.0870771 0.100357
5091 2 0.320869 0.174347 0.216626
25696 2 0.296229 0.12462 0.129109
2746 2 0.27607 0.142715 0.0588328
4878 2 0.19586 0.232026 0.175789
20943 2 0.0547579 0.00607864 0.00729083
26996 2 0.268424 0.0204577 0.0805443
21683 2 0.172194 0.0875612 0.0675133
11179 2 0.231002 0.0407016 0.125345
15783 2 0.0902449 0.240861 0.131154
3937 2 0.0444246 0.0093692 0.207434
22595 2 0.0535231 0.21658 0.170798
24643 2 0.153148 0.110644 0.115054
27550 2 0.312474 0.181185 0.21371
21333 2 0.13932 0.142406 0.214848
4578 2 0.329239 0.238607 0.189366
16234 2 0.304764 0.220926 0.0946469
23679 2 0.268288 0.244765 0.196218
20485 2 0.321252 0.12987 0.225633
18140 2 0.173434 0.144941 0.00695207
13444 2 0.305564 0.197354 0.104986
21050 2 0.0897031 0.0810917 0.109556
17784 2 0.107315 0.234427 0.164641
24185 2 0.0579711 0.124584 0.220623
2744 2 0.32608 0.0827569 0.201295
17791 2 0.121875 0.0358549 0.114084
12685 2 0.194778 0.186567 0.219139
9897 2 0.253919 0.226623 0.212353
21346 2 0.161818 0.162088 0.246016
16836 2 0.27604 0.0147538 0.154759
21678 2 0.315181 0.113748 0.0907671
14244 2 0.09686 0.0251025 0.0392137
14049 2 0.299191 0.010818 0.0367958
11685 2 0.133423 0.0148948 0.0850077
21040 2 0.0352349 0.164276 0.000771537
24042 2 0.00469486 0.0504921 0.158831
16842 2 0.329337 0.04416 0.106227
23678 2 0.235203 0.237634 0.133311
18583 2 0.184214 0.097411 0.218806
7299 2 0.125463 0.139755 0.130961
27547 2 0.265142 0.102583 0.155884
8435 2 0.0618566 0.244416 0.201538
7484 2 0.0556296 0.208552 0.106747
7488 2 0.0734439 0.0694202 0.0507532
22745 2 0.310508 0.249371 0.0635238
13445 2 0.307336 0.199916 0.222545
16841 2 0.31859 0.0471527 0.146431
11182 2 0.313525 0.00117797 0.12449
17783 2 0.113776 0.112058 0.109716
8945 2 0.321121 0.173639 0.0996745
7595 2 0.000642269 0.187069 0.0426474
28291 2 0.310082 0.0169948 0.190353
13850 2 0.119514 0.186114 0.0151456
26994 2 0.141397 0.024908 0.0951892
7489 2 0.0446553 0.0541467 0.0539092
16843 2 0.272608 0.0108755 0.155674
16390 2 0.191537 0.191876 0.0663934
18582 2 0.282096 0.079101 0.209621
11687 2 0.00622651 0.0663187 0.0134933
23697 2 0.280453 0.127435 0.19204
13450 2 0.164546 0.135894 0.192958
11183 2 0.299546 0.0801397 0.0914533
1135 2 0.290464 0.23081 0.151882
24641 2 0.1609 0.101341 0.0434776
20350 2 0.0582552 0.237937 0.0361991
21347 2 0.102976 0.116013 0.204815
3239 2 0.0774249 0.0975626 0.105097
15784 2 0.121388 0.202206 0.0871669
21046 2 0.175028 0.0758568 0.0752114
18100 2 0.160829 0.101063 0.00588468
13449 2 0.245795 0.0473464 0.234811
22738 2 0.270407 0.174566 0.0791198
22741 2 0.289278 0.181256 0.149511
24645 2 0.223288 0.0808579 0.130452
743 2 0.276433 0.249634 0.0205993
27542 2 0.174436 0.0111719 0.0610844
15787 2 0.152257 0.191657 0.0118456
22740 2 0.318668 0.171452 0.119061
11991 2 0.0351789 0.227337 0.242911
7298 2 0.161846 0.0877936 0.171644
7185 2 0.238265 0.195825 0.0233246
24897 2 0.0425728 0.00799262 0.222787
7387 2 0.0744585 0.0486118 0.187968
6595 2 0.16597 0.184256 0.177568
19487 2 0.0847589 0.248303 0.0701558
5887 2 0.0763084 0.212709 0.0190539
26976 2 0.313042 0.227474 0.168856
21685 2 0.202211 0.149441 0.0397111
1483 2 0.0950665 0.184732 0.167538
1128 2 0.27875 0.183108 0.0872617
9975 1 0.288709 0.190025 0.118202
12641 2 0.188936 0.14394 0.152231
22588 2 0.034261 0.19601 0.237376
22587 2 0.0386733 0.214445 0.11799
18578 2 0.286516 0.102591 0.156998
16834 2 0.305482 0.0592634 0.139869
16230 2 0.260036 0.201995 0.130158
2346 2 0.295691 0.06778 0.028036
26977 2 0.30509 0.209491 0.14582
9891 2 0.0978044 0.11138 0.18413
27548 2 0.246481 0.0718463 0.231379
19346 2 0.239799 0.137088 0.075262
2347 2 0.330366 0.0628064 0.0684646
25698 2 0.187148 0.168148 0.128893
27549 2 0.23602 0.154024 0.2176
9890 2 0.0689154 0.108782 0.204252
1481 2 0.0921925 0.178291 0.120115
16231 2 0.266003 0.237642 0.151254
23696 2 0.223701 0.222379 0.21714
3241 2 0.0421415 0.0599179 0.167396
25998 2 0.148471 0.168688 0.165995
25800 2 0.324555 0.0720411 0.0637621
1484 2 0.120029 0.241784 0.157397
24195 2 0.0805522 0.177517 0.16074
8541 2 0.170647 0.248905 0.0343723
26978 2 0.253617 0.171364 0.11709
23681 2 0.184071 0.201476 0.155819
9898 2 0.253561 0.245782 0.206329
7300 2 0.0783557 0.125165 0.109944
24646 2 0.170719 0.0494346 0.210366
21033 2 0.105624 0.225533 0.117239
24200 2 0.270487 0.162005 0.185276
4533 2 0.0744357 0.185253 0.188184
27544 2 0.254881 0.0580546 0.036708
15533 2 0.330098 0.0347474 0.202101
24184 2 0.096985 0.0961057 0.192765
13446 2 0.288003 0.119326 0.205785
13448 2 0.223083 0.0794142 0.243498
18579 2 0.297927 0.0521465 0.236034
6348 2 0.0690344 0.158602 0.186529
24197 2 0.166483 0.157124 0.148975
9889 2 0.084835 0.0460687 0.192972
8434 2 0.0187013 0.232879 0.199577
6939 2 0.33179 0.011861 0.127488
22736 2 0.281648 0.1521 0.0513653
21349 2 0.054758 0.151536 0.231279
10496 2 0.0307973 0.226543 0.246036
12640 2 0.234177 0.213393 0.094715
20482 2 0.326113 0.157946 0.0816075
21030 2 0.0477347 0.219676 0.163596
22991 2 0.198296 0.191192 0.156749
19345 2 0.216964 0.177648 0.124041
23684 2 0.1354 0.219455 0.223015
3240 2 0.0836833 0.104976 0.147722
19344 2 0.151283 0.229625 0.0891612
7187 2 0.203049 0.171344 0.0127292
24188 2 0.01818 0.124951 0.216575
11178 2 0.281116 0.0104291 0.198776
27486 2 0.217679 0.0738753 0.166923
26000 2 0.240602 0.109813 0.190367
12689 2 0.171836 0.17221 0.231519
5899 2 0.0944845 0.209522 0.0783347
21331 2 0.155121 0.184869 0.125128
2734 2 0.29659 0.0545229 0.194342
27546 2 0.242038 0.064012 0.108601
20685 2 0.0266938 0.227924 0.0212875
7194 2 0.200931 0.221024 0.174525
12691 2 0.117224 0.0438442 0.161259
12643 2 0.258313 0.131076 0.201428
12688 2 0.209801 0.18848 0.244469
10789 2 0.241805 0.103244 0.224115
6347 2 0.0820369 0.175259 0.128036
21193 2 0.200096 0.0981859 0.228975
12642 2 0.217218 0.104096 0.198986
20334 2 0.0264821 0.24278 0.161188
12644 2 0.276565 0.031393 0.203261
24642 2 0.17955 0.125481 0.0630142
8430 2 0.0106098 0.213605 0.203576
22986 2 0.217585 0.202022 0.196476
5946 2 0.0501667 0.190526 0.150667
22985 2 0.281279 0.173767 0.205368
27491 2 0.171248 0.0784684 0.247567
25697 2 0.241415 0.164622 0.146226
22984 2 0.283497 0.213868 0.198231
3248 2 0.0618221 0.0465947 0.222128
16391 2 0.189431 0.242101 0.0883528
12692 2 0.15778 0.0380123 0.125426
19342 2 0.17689 0.204748 0.0539934
19840 2 0.135326 0.0590489 0.190694
5099 2 0.277811 0.214831 0.16034
22583 2 0.073988 0.23827 0.0199626
24183 2 0.120373 0.180405 0.234367
23682 2 0.150064 0.223932 0.178602
8943 2 0.308823 0.20233 0.03841
3242 2 0.0485911 0.0831206 0.189928
10790 2 0.204781 0.111634 0.236453
8431 2 0.0435223 0.219079 0.167166
7385 2 0.130794 0.0601468 0.146602
12690 2 0.16801 0.0851569 0.229713
3934 2 0.0242021 0.0313667 0.198692
16389 2 0.218775 0.245244 0.0365823
21044 2 0.18919 0.237147 0.0577156
2733 2 0.300057 0.0457421 0.224673
24186 2 0.0155668 0.110985 0.233129
18085 2 0.0248924 0.0130691 0.200407
27484 2 0.223919 0.0527801 0.203209
20184 2 0.241823 0.234843 0.0921363
6291 2 0.295966 0.244438 0.130188
26549 2 0.205593 0.220241 0.211417
24190 2 0.090799 0.148157 0.243039
7193 2 0.1577 0.24212 0.208685
15788 2 0.133226 0.191876 0.0218722
22582 2 0.0730696 0.199981 0.0443651
24644 2 0.180785 0.0895686 0.150244
25995 2 0.267745 0.154175 0.235034
24194 2 0.170657 0.169597 0.159797
19841 2 0.113054 0.058268 0.151197
24895 2 0.0371249 0.0432069 0.143309
24192 2 0.141807 0.129819 0.207948
27488 2 0.195052 0.184677 0.205038
12648 2 0.177051 0.00300016 0.18453
24896 2 0.0271107 0.0651377 0.147697
4791 2 0.0980819 0.0394613 0.203194
13447 2 0.283403 0.0998547 0.218486
19337 2 0.227367 0.231577 0.0451599
8950 2 0.276711 0.0378701 0.115869
22585 2 0.0497569 0.198594 0.071302
20686 2 0.104733 0.22392 0.0388237
7296 2 0.261867 0.0181429 0.226265
25690 2 0.31729 0.239487 0.21348
5886 2 0.129643 0.205442 0.0508706
22990 2 0.278162 0.223384 0.162775
19343 2 0.191105 0.220163 0.071706
27489 2 0.176619 0.17638 0.207106
21032 2 0.045822 0.237244 0.0972342
7190 2 0.184506 0.235001 0.0639846
24182 2 0.053424 0.158717 0.226287
27492 2 0.265398 0.121665 0.242815
4792 2 0.146528 0.15301 0.193071
25691 2 0.318973 0.204824 0.213117
23239 2 0.0406054 0.0847044 0.232378
2735 2 0.292536 0.123436 0.225372
27481 2 0.238338 0.00885405 0.20598
21336 2 0.185467 0.0844837 0.211224
3000 2 0.232908 0.246724 0.0911708
7297 2 0.158852 0.0663026 0.18192
19334 2 0.212875 0.222646 0.0326419
23683 2 0.0961787 0.235333 0.179773
7192 2 0.175188 0.236351 0.134619
5898 2 0.00791324 0.236071 0.132743
15497 2 0.0204334 0.245727 0.0559384
20689 2 0.326896 0.248504 0.11565
22987 2 0.216246 0.247822 0.188264
3247 2 0.0681366 0.057641 0.221311
4790 2 0.0464183 0.0885713 0.239352
24191 2 0.0816366 0.177447 0.218215
24189 2 0.0872862 0.144905 0.209021
2732 2 0.320488 0.0379605 0.247627
8433 2 0.0092185 0.2103 0.239795
27490 2 0.203945 0.145278 0.249808
24193 2 0.104288 0.158075 0.231674
8432 2 0.00320206 0.194668 0.247244
23698 2 0.264269 0.17243 0.220792
20487 2 0.295718 0.00577618 0.249762
10483 2 0.0590327 0.134973 0.206696
5379 2 0.0117553 0.0694312 0.215885
5085 2 0.321902 0.240187 0.246331
21179 2 0.314443 0.0617638 0.248925
7295 2 0.254868 0.0477118 0.236902
23700 2 0.200201 0.142823 0.247048
21350 2 0.0113494 0.144945 0.197998
12686 2 0.198264 0.196526 0.237863
6594 2 0.169445 0.158364 0.246903
23881 2 0.0046863 0.0471176 0.24785
22596 2 0.085727 0.213449 0.234881
10788 2 0.213 0.115347 0.246692
21348 2 0.0176773 0.163256 0.224201
8436 2 0.0702665 0.200995 0.243822
24692 2 0.208367 0.00214061 0.0179592
436 2 0.14416 0.209675 0.0246418
17191 2 0.0115234 0.0515919 0.00182589
21649 2 0.107917 0.0519667 0.00877168
18143 2 0.218613 0.00979179 0.0170244
24698 2 0.108991 0.0548961 0.00377287
149 2 0.2912 0.035788 0.0161176
14241 2 0.06085 0.0960686 0.00948965
18144 2 0.155216 0.052614 0.00709328
15789 2 0.141456 0.236948 0.0033267
435 2 0.130578 0.166424 0.0234112
11081 2 0.256555 0.0132706 0.00457909
18132 2 0.277107 0.232973 0.000938065
23386 2 0.134427 0.0466307 0.00174194
8595 2 0.331728 0.0665643 0.0374
15386 2 0.327448 0.230419 0.00197714
21039 2 0.0710554 0.21389 0.00456105
21578 2 0.300689 0.00184797 0.00157812
18145 2 0.15489 0.0439843 0.00485872
17047 2 0.125061 0.11116 0.0201104
20945 2 0.153056 0.0499681 0.0109272
24039 2 0.00307687 0.0216587 0.0127021
21694 2 0.0881264 0.21027 0.00774717
25798 2 0.281384 0.0834154 0.0500553
23994 2 0.0674264 0.0781125 0.0249159
2750 2 0.241622 0.108097 0.0207123
23385 2 0.0896548 0.069001 0.0123034
21188 2 0.244357 0.0731516 0.371906
5385 2 0.0836211 0.000483145 0.289055
26641 2 0.242641 0.0353394 0.469631
16685 2 0.0690018 0.112237 0.468559
25745 2 0.193701 0.172809 0.318899
21186 2 0.322287 0.137595 0.274273
24893 2 0.14362 0.182856 0.263213
18700 2 0.137877 0.0546057 0.315615
12733 2 0.276191 0.19983 0.370803
23240 2 0.0350288 0.0775565 0.259542
19533 2 0.101382 0.204253 0.468813
23874 1 0.0101423 0.138695 0.387239
8198 2 0.311454 0.00433593 0.41784
23973 1 0.00283436 0.15598 0.336448
5384 2 0.12265 0.0112916 0.268533
4799 2 0.0890952 0.212874 0.326158
10435 2 0.288351 0.00301343 0.390601
10797 2 0.164167 0.0354734 0.325152
16888 2 0.134288 0.0174765 0.383063
10297 2 0.0865103 0.162275 0.405818
16483 2 0.0365336 0.139698 0.341253
24647 2 0.199428 0.0943237 0.293062
10489 2 0.0488209 0.200075 0.320525
10296 2 0.164768 0.1495 0.385818
18589 2 0.312647 0.048255 0.410396
16486 2 0.0807467 0.154936 0.421922
7640 2 0.0326323 0.146116 0.329768
16485 2 0.0346004 0.157331 0.380154
1997 2 0.147835 0.0389898 0.497791
1799 2 0.0811775 0.0902706 0.384189
23244 2 0.037792 0.0941106 0.35748
26640 2 0.230536 0.005243 0.422936
1796 2 0.112739 0.0939017 0.466597
27345 2 0.093491 0.226865 0.385277
24649 2 0.137587 0.161994 0.367055
5381 2 0.0441195 0.0776514 0.29055
16484 2 0.0365229 0.139892 0.33618
12729 2 0.099892 0.21209 0.37303
2738 2 0.320124 0.0858844 0.269393
1797 2 0.120356 0.0659909 0.379654
10792 2 0.180739 0.149335 0.362242
14332 2 0.183819 0.0143646 0.394057
4930 2 0.0246365 0.091363 0.485251
26642 2 0.198512 0.015169 0.492618
1798 2 0.0988757 0.0855371 0.386011
16687 2 0.0653593 0.116834 0.457793
9299 2 0.0822159 0.00421705 0.321119
3246 2 0.055155 0.0652415 0.293588
17282 2 0.0264148 0.202592 0.440944
5986 2 0.0330187 0.164709 0.462638
26435 2 0.185534 0.0691478 0.341473
10291 2 0.095192 0.00104838 0.455304
4929 2 0.0115678 0.00848905 0.492346
4595 2 0.216609 0.159122 0.367566
4931 2 0.0269428 0.165447 0.490871
3936 2 0.0499734 0.0157399 0.25276
16686 2 0.101245 0.0698143 0.493491
1998 2 0.167551 0.00244376 0.443415
24891 2 0.254847 0.241171 0.283325
12728 2 0.0743167 0.215095 0.416182
20499 2 0.244838 0.0276433 0.45298
7890 2 0.28843 0.110453 0.466793
9894 2 0.208434 0.189746 0.272532
27344 2 0.132704 0.209124 0.401873
23146 2 0.267518 0.094515 0.397253
7637 2 0.125877 0.193701 0.364242
23879 2 0.0286967 0.0843153 0.337008
16476 2 0.0712746 0.115823 0.285204
4785 2 0.0223677 0.00434186 0.35805
27494 2 0.290535 0.13789 0.279297
10298 2 0.107861 0.111756 0.490843
12993 2 0.0826742 0.16764 0.295264
4297 2 0.128625 0.176733 0.476317
6492 2 0.253102 0.00161809 0.491364
5988 2 0.0325609 0.073828 0.460433
24387 2 0.058831 0.201792 0.412821
6578 2 0.008367 0.152333 0.293873
1996 2 0.144181 0.0573251 0.491545
7381 2 0.0616978 0.0455952 0.281389
27483 2 0.189682 0.0168191 0.282661
4828 2 0.0567479 0.097137 0.426772
23245 2 0.0163297 0.0300063 0.33232
18698 2 0.166786 0.0136007 0.314835
4596 2 0.258322 0.16843 0.385119
5987 2 0.0219214 0.118589 0.447311
16480 2 0.0520436 0.230992 0.313373
21228 2 0.0383663 0.227037 0.476883
10791 2 0.17813 0.101129 0.316761
4800 2 0.0902168 0.145927 0.284117
9147 2 0.245066 0.0513999 0.429588
4789 2 0.0271394 0.0159524 0.336653
17283 2 0.00815205 0.155636 0.497694
13886 2 0.211959 0.0861425 0.313777
18585 2 0.157302 0.036974 0.272369
4787 2 0.0966401 0.0306686 0.347594
21198 2 0.24723 0.0709392 0.316194
7888 2 0.292526 0.0726948 0.380205
16479 2 0.0600911 0.174845 0.357148
4793 2 0.158271 0.143999 0.300813
12730 2 0.126663 0.210926 0.345232
4593 2 0.172016 0.180837 0.38284
10444 2 0.280858 0.0410447 0.304428
5268 1 0.0241115 0.0102527 0.305155
16475 1 0.0144513 0.0471774 0.31325
23699 2 0.202505 0.171658 0.277858
12995 2 0.0911546 0.123668 0.304957
16884 2 0.141451 0.0349023 0.402726
21341 2 0.0849405 0.234033 0.313576
21345 2 0.154781 0.125081 0.31028
16478 2 0.0224267 0.206112 0.328578
27493 2 0.266632 0.144964 0.263653
23145 2 0.248452 0.0257989 0.365724
18587 2 0.272045 0.0224973 0.392749
26437 2 0.112895 0.0294282 0.349038
4942 2 0.121711 0.149914 0.391207
10292 2 0.133958 0.00488753 0.493172
10442 2 0.303629 0.00572678 0.377488
4827 2 0.0147533 0.116913 0.324403
4939 2 0.24053 0.206726 0.348843
16489 2 0.0422139 0.205849 0.429151
10793 2 0.154688 0.00648587 0.382623
4794 2 0.116131 0.139229 0.309119
4944 2 0.0492657 0.140257 0.394643
5382 2 0.0800642 0.0580635 0.289729
19529 2 0.0111306 0.201351 0.4257
21196 2 0.249697 0.0952487 0.338597
2142 2 0.22994 0.207616 0.362009
7747 2 0.331345 0.0346924 0.40564
26438 2 0.139427 0.0266779 0.382364
12687 2 0.200147 0.172118 0.270602
4383 2 0.277199 0.0378381 0.270125
12992 2 0.00781661 0.158464 0.261597
9146 2 0.220924 0.00828979 0.454306
7961 1 0.00479965 0.103618 0.483391
4598 2 0.267754 0.121176 0.445955
10796 2 0.235997 0.0314494 0.310913
5985 2 0.0249805 0.176558 0.459693
1098 2 0.185117 0.0387527 0.349213
16477 2 0.0753996 0.158709 0.291692
21199 2 0.221756 0.114829 0.262363
20500 2 0.291963 0.0496507 0.456941
23899 2 0.159392 0.13378 0.3043
6633 2 0.207334 0.0417937 0.402652
4290 2 0.128197 0.0384459 0.271681
12737 2 0.2179 0.157822 0.445476
26446 2 0.111036 0.0063383 0.464726
4937 2 0.255007 0.13535 0.313158
20150 2 0.258011 0.116602 0.32257
23144 2 0.260443 0.06446 0.327159
7641 2 0.0272756 0.19425 0.459453
3245 2 0.0281838 0.0947119 0.310232
16846 2 0.209136 0.00769764 0.308965
7382 2 0.0774651 0.00453508 0.252007
4795 2 0.129276 0.0914792 0.309104
16878 2 0.0615189 0.106148 0.48072
26643 2 0.198185 0.0237896 0.484493
4940 2 0.162974 0.187647 0.366864
2736 2 0.305703 0.0929598 0.285224
12735 2 0.275335 0.170784 0.360725
6493 2 0.20896 0.0191091 0.486638
23877 2 0.0231285 0.0945077 0.407023
25990 2 0.332719 0.214759 0.379257
21197 2 0.237551 0.0755367 0.282224
20231 2 0.257772 0.242552 0.373801
7378 2 0.106935 0.0661532 0.44453
21195 2 0.22444 0.0697374 0.340473
2730 2 0.321822 0.0633371 0.315491
16879 2 0.0221645 0.029292 0.436419
21339 2 0.138874 0.217876 0.294184
23890 2 0.0992367 0.0270728 0.340093
1097 2 0.167284 0.0162014 0.293503
16883 2 0.0705277 0.02978 0.348245
10434 2 0.313306 0.0287255 0.353456
21184 2 0.234359 0.0513135 0.275067
21337 2 0.222527 0.169244 0.316003
4788 2 0.0525844 0.0165865 0.398841
18586 2 0.230829 0.0619808 0.307085
20489 2 0.249788 0.0273076 0.30959
12727 2 0.0586269 0.183924 0.386722
5288 2 0.0506598 0.00735042 0.433285
4293 2 0.0647334 0.131837 0.304107
4592 2 0.252661 0.194325 0.47971
5383 2 0.10472 0.0562296 0.267531
5088 2 0.280177 0.185351 0.330194
21190 2 0.205257 0.0906635 0.353792
23884 2 0.0398862 0.135435 0.274709
4285 2 0.00908146 0.104922 0.265474
7377 2 0.0909895 0.0674448 0.411025
25994 2 0.297809 0.19352 0.25166
12832 2 0.154793 0.0148647 0.331086
18594 2 0.236226 0.00701103 0.380049
10488 2 0.0133552 0.229237 0.358355
14333 2 0.206502 0.0162426 0.373611
21187 2 0.33303 0.103844 0.317727
10484 2 0.0786571 0.189004 0.28607
12698 2 0.0976061 0.0356516 0.281609
7749 2 0.323774 0.10771 0.351969