ITEM: TIMESTEP
1000000
ITEM: NUMBER OF ATOMS
31250
ITEM: BOX BOUNDS pp pp pp
-7.1443500000000002e+00 7.1443500000000002e+00
-7.1443500000000002e+00 7.1443500000000002e+00
-7.1443500000000002e+00 7.1443500000000002e+00
ITEM: ATOMS id type x y z
5453 1 -4.96358 -3.99636 -4.95635
10559 1 -6.42821 -3.72841 -5.27369
9256 1 -5.56786 -6.59817 -4.11667
10560 1 -6.44566 -3.99555 -5.89601
6460 1 -6.76682 -4.28514 -5.65287
18011 1 -5.91501 -7.02311 -4.91052
25701 1 -7.10351 -6.43535 -6.90605
22521 1 -6.16403 -6.54136 -5.95981
9862 1 -6.72309 -6.45864 -5.83127
20258 1 -6.95218 -5.54188 -5.16742
11104 1 -7.03169 -6.52036 -4.02095
27568 1 -7.03721 -5.57967 -5.77988
11812 1 -5.90652 -5.81371 -4.82113
6465 1 -6.88581 -4.28352 -5.17841
3471 1 -5.09888 -7.10504 -6.33154
14860 1 -7.01342 -3.96885 -4.783
26472 1 -4.86204 -4.85925 -6.98451
5462 1 -6.96805 -6.47573 -6.65945
3060 1 -6.76697 -5.14796 -5.93652
14906 1 -5.65396 -6.14365 -5.8801
15608 1 -6.47886 -5.231 -6.54418
18009 1 -5.71725 -6.61412 -4.14301
22513 1 -5.70716 -5.11246 -3.87483
11810 1 -6.98097 -5.19613 -5.47624
9868 1 -5.63766 -5.3773 -4.34691
9456 1 -7.10582 -4.06982 -4.43569
11813 1 -5.53573 -5.17443 -6.07035
5456 1 -6.54559 -4.8793 -6.0994
23365 1 -4.95992 -6.34361 -6.39347
3070 1 -5.17736 -6.11884 -6.73161
3062 1 -7.0481 -5.62331 -5.21291
11811 1 -5.77369 -6.0867 -4.82913
20117 1 -4.90158 -5.80223 -5.38996
22514 1 -6.67226 -5.06819 -4.16261
14912 1 -5.09753 -5.77281 -6.07265
27566 1 -6.76913 -6.01996 -5.53462
3064 1 -6.50349 -6.7082 -6.13725
16769 1 -5.40863 -4.80436 -6.97974
20256 1 -6.60549 -5.37822 -3.98017
4820 1 -6.86917 -5.51204 -6.02097
3063 1 -6.15074 -6.32893 -5.51244
24551 1 -5.22634 -4.26642 -6.43596
27662 1 -7.11952 -6.17316 -7.00978
4155 1 -5.68094 -6.54646 -4.46546
14901 1 -5.14122 -4.80884 -5.50028
29312 1 -5.14884 -6.81426 -5.30666
27369 1 -5.6249 -4.77265 -7.01926
25708 1 -6.1517 -5.5076 -6.97509
4152 1 -6.44513 -6.4942 -4.55293
5457 1 -6.03563 -6.09283 -6.5495
18002 1 -6.81442 -5.19533 -3.82031
11007 1 -7.00072 -6.95454 -6.98161
6459 1 -6.53235 -3.94483 -4.98971
3215 1 -6.3923 -6.94896 -5.55373
9255 1 -5.12337 -6.56053 -5.22973
22512 1 -6.52938 -4.6196 -4.2689
20254 1 -5.6791 -6.00322 -5.22178
14857 1 -6.98451 -4.29576 -4.83877
15617 1 -6.37474 -6.58047 -5.68256
9755 1 -6.79507 -3.8536 -4.10932
4357 1 -6.80485 -4.93594 -6.68456
20751 1 -5.56105 -5.4367 -6.14396
3469 1 -5.07878 -6.75341 -7.08172
25712 1 -6.27564 -6.34132 -6.56991
5455 1 -5.96207 -5.24483 -5.39529
9864 1 -6.55297 -6.54227 -5.62397
29459 1 -4.86377 -6.10971 -5.78412
13622 1 -5.55493 -6.48242 -6.01586
9866 1 -6.43446 -6.01984 -4.80443
11119 1 -6.78497 -5.19587 -3.6365
11809 1 -7.00777 -5.48043 -6.42628
20108 1 -5.91447 -7.01263 -6.18102
6920 1 -6.32884 -4.91439 -3.88505
18601 1 -6.82068 -6.89524 -6.72045
13623 1 -4.79269 -6.78032 -5.30495
15610 1 -6.31521 -6.17729 -5.7026
14911 1 -5.76397 -5.31939 -5.98237
15607 1 -6.52918 -4.87073 -6.26177
4153 1 -7.04674 -6.89992 -3.84456
6468 1 -6.02636 -4.62944 -6.38759
3467 1 -5.21544 -4.93396 -7.01045
3470 1 -5.21763 -6.91159 -6.255
20102 1 -6.36932 -7.10058 -4.93923
28809 1 -7.06411 -4.04695 -5.27663
6471 1 -4.85934 -5.16358 -6.43207
4158 1 -6.19541 -7.03737 -5.56993
14908 1 -5.79021 -6.35387 -6.22134
15221 1 -7.1121 -5.24276 -6.45224
21308 1 -5.20629 -4.62925 -4.28314
19454 1 -6.46297 -4.20676 -6.08941
12403 1 -6.71731 -4.31839 -6.59136
26214 1 -5.0444 -6.96735 -6.26802
8168 1 -4.79171 -3.72442 -6.56513
25711 1 -6.59263 -5.3585 -6.97694
25703 1 -5.99411 -5.48472 -6.57804
15611 1 -6.36495 -6.95427 -5.49628
2024 1 -5.01704 -6.29771 -3.84896
6919 1 -6.69234 -4.77579 -3.58611
14905 1 -5.21268 -4.70433 -6.08168
27366 1 -5.14168 -5.10008 -6.71867
25705 1 -5.68489 -5.34668 -6.78472
3059 1 -7.07043 -5.727 -4.64079
2825 1 -5.06618 -6.85904 -5.08125
12404 1 -6.77521 -4.76966 -6.30774
18001 1 -6.38061 -5.56552 -3.66538
13158 1 -6.5526 -4.43348 -4.272
5454 1 -5.77424 -4.65071 -5.34832
18005 1 -6.79776 -6.71207 -4.19161
3066 1 -5.34845 -7.03359 -6.13239
20253 1 -5.46149 -6.88174 -6.54396
18920 1 -4.99255 -7.0216 -4.44787
11120 1 -6.91101 -6.00384 -5.49192
27567 1 -7.06587 -5.86078 -6.07264
13621 1 -6.11797 -6.90433 -6.06456
2568 1 -6.00352 -4.96315 -6.30803
10316 1 -5.20336 -5.74797 -4.9893
12408 1 -6.62198 -5.95895 -5.88523
9460 1 -6.05276 -4.1228 -4.30697
6464 1 -6.39258 -3.62444 -5.84263
20257 1 -7.08579 -5.14769 -4.39467
15463 1 -6.09178 -3.86517 -6.81017
3472 1 -4.78797 -7.0955 -6.47715
4356 1 -6.80767 -4.99413 -6.20112
15619 1 -6.95409 -6.48096 -5.32303
3072 1 -4.95864 -5.12026 -7.03136
15455 1 -5.48318 -3.62994 -5.83044
14914 1 -5.60389 -6.4322 -6.46548
11814 1 -7.01376 -4.73477 -6.37681
6467 1 -6.6768 -4.53956 -6.01011
20762 1 -5.72374 -4.90598 -4.09594
19455 1 -6.5961 -4.30926 -5.55821
5459 1 -7.13374 -6.24616 -6.42104
20255 1 -6.37775 -5.80344 -4.15981
2569 1 -6.44929 -4.859 -6.39017
23206 1 -6.61546 -6.6959 -4.2398
3071 1 -4.94802 -5.57878 -6.62723
20119 1 -5.11321 -6.03217 -4.9623
10564 1 -6.29999 -4.33082 -4.45426
14903 1 -5.67033 -5.10138 -5.34404
18008 1 -6.28724 -6.72654 -3.85659
3213 1 -5.13377 -6.73689 -6.38265
15219 1 -6.54796 -6.02015 -6.26824
25709 1 -6.26255 -5.30883 -6.81507
5602 1 -6.05129 -6.93312 -4.94583
18918 1 -4.85798 -7.11274 -4.33551
20116 1 -5.32269 -6.70957 -5.15014
3523 1 -4.77076 -4.95815 -4.09296
4156 1 -5.29694 -5.50984 -4.21072
20752 1 -6.04561 -4.21179 -6.53168
30105 1 -6.46897 -3.87775 -5.79785
19510 1 -5.64543 -6.73907 -5.08319
22505 1 -6.85177 -4.915 -3.98456
20761 1 -5.75266 -4.31861 -4.90207
15609 1 -5.91599 -6.24361 -6.22896
20765 1 -5.72384 -3.8064 -3.60863
14907 1 -5.80792 -5.32558 -6.55892
10561 1 -6.66209 -4.0769 -6.23185
18010 1 -5.64593 -6.17323 -4.21209
21309 1 -5.1659 -4.42157 -4.15498
22523 1 -5.21398 -6.19939 -4.81663
20106 1 -6.43368 -7.00906 -4.58193
18004 1 -6.62962 -6.16432 -4.19777
25710 1 -6.36672 -4.78066 -5.93913
12409 1 -6.71194 -5.61029 -5.6265
4821 1 -5.78409 -5.34429 -5.56286
3065 1 -6.11495 -6.77157 -5.53063
5458 1 -6.2294 -6.45247 -5.99833
19453 1 -6.19886 -4.85041 -5.17792
22509 1 -5.39178 -5.07305 -3.87405
21310 1 -5.23414 -4.59156 -4.20177
10312 1 -5.06485 -4.10001 -5.91809
10309 1 -5.41402 -3.81385 -5.85788
9764 1 -5.18517 -6.41221 -4.6409
20763 1 -5.47944 -4.35396 -4.15777
28966 1 -5.78543 -6.20139 -3.66419
7004 1 -5.12258 -3.91108 -6.59369
18407 1 -5.88937 -3.57555 -6.61792
22524 1 -5.03287 -6.50129 -4.18911
28658 1 -5.90013 -4.70406 -6.16449
4822 1 -5.46707 -5.87349 -5.35476
15471 1 -5.51406 -4.94116 -4.78708
9461 1 -5.62827 -3.97264 -4.00641
3061 1 -6.69124 -5.6427 -5.79198
9867 1 -5.82893 -5.6762 -4.46987
28954 1 -6.42832 -6.9512 -4.52867
4157 1 -6.29941 -6.29951 -4.71563
24553 1 -5.69163 -4.35679 -5.98799
21317 1 -5.12423 -6.84551 -4.01155
20760 1 -5.17504 -4.67862 -5.49706
14856 1 -6.8278 -4.25349 -5.50271
27055 1 -6.98987 -5.1117 -3.61759
7062 1 -6.50567 -4.08617 -6.58727
25417 1 -6.87535 -5.69551 -6.72672
14904 1 -5.84622 -4.74778 -5.56408
9865 1 -6.53768 -6.07627 -5.01379
11116 1 -6.56957 -5.21843 -3.64962
27370 1 -5.2382 -4.68925 -6.73087
30107 1 -6.78529 -4.68216 -5.53229
13159 1 -6.01919 -5.04078 -4.25941
11118 1 -6.08645 -6.04566 -4.14275
5560 1 -5.73134 -6.66958 -5.75905
29308 1 -5.9337 -6.03009 -4.15994
11110 1 -6.28425 -4.77845 -3.71204
2369 1 -4.98421 -3.74861 -4.043
20755 1 -5.40436 -4.33187 -5.48834
29306 1 -6.31721 -5.50996 -4.34245
14913 1 -4.93007 -5.73875 -6.14596
14909 1 -5.36665 -5.52107 -5.7613
3515 1 -6.20934 -3.75776 -3.81613
15466 1 -5.39126 -4.18293 -5.28768
15613 1 -6.91727 -6.98958 -6.45642
27557 1 -5.87611 -3.89102 -4.75471
9254 1 -6.44532 -5.01555 -5.21511
29305 1 -6.52813 -5.19578 -5.11374
1674 1 -5.50045 -5.36739 -5.33746
7013 1 -5.13345 -4.58276 -6.48971
21314 1 -4.77695 -5.15947 -3.74815
3522 1 -4.89576 -5.38946 -3.67374
29304 1 -6.62956 -6.50316 -5.47194
29302 1 -4.96708 -5.59764 -5.09256
19451 1 -4.9554 -4.82343 -5.87922
21313 1 -5.45085 -5.30628 -4.68238
13620 1 -6.72334 -6.55618 -6.33579
10315 1 -4.90159 -4.88881 -5.30257
1672 1 -5.60285 -4.34165 -4.45078
9756 1 -6.88578 -4.50486 -4.17226
14902 1 -6.2026 -4.89151 -5.69252
14910 1 -5.55159 -5.33751 -6.23685
2070 1 -6.5587 -3.78741 -3.79651
6469 1 -5.74797 -4.42437 -6.61607
10556 1 -7.07724 -4.41648 -5.58207
25713 1 -5.58857 -6.21857 -6.01808
10314 1 -5.13231 -4.61222 -5.76448
15470 1 -5.73746 -4.79442 -5.1127
29307 1 -6.69517 -6.15048 -4.17896
10313 1 -5.30541 -3.76101 -5.31594
28659 1 -6.1317 -4.28178 -6.31063
14858 1 -6.9095 -3.61091 -4.89004
28660 1 -6.18936 -4.09211 -6.41585
2021 1 -6.00303 -3.99961 -4.07257
20768 1 -5.20491 -4.0809 -4.07996
31074 1 -5.78276 -6.18171 -3.8146
15464 1 -5.93949 -5.32728 -6.52475
1671 1 -5.24965 -3.83196 -4.66708
28961 1 -6.62285 -6.80044 -4.47211
21311 1 -5.38428 -4.70559 -4.51043
15465 1 -6.20049 -3.9616 -5.85866
7003 1 -5.68667 -4.077 -5.80288
1673 1 -5.22588 -4.80192 -4.45308
30106 1 -6.514 -4.16347 -6.27314
16265 1 -5.12186 -4.904 -4.75845
22511 1 -5.6262 -4.22907 -3.93962
6914 1 -5.16892 -5.64056 -4.05977
10555 1 -7.03136 -4.66617 -5.33423
10572 1 -5.55053 -5.06497 -5.67657
27564 1 -6.40739 -4.42149 -5.04106
30108 1 -6.77611 -4.82654 -4.71375
28654 1 -5.10452 -5.45763 -3.99719
9251 1 -5.27839 -4.9832 -6.56824
20756 1 -4.91468 -4.04139 -5.29623
29309 1 -5.17465 -6.47949 -4.57496
10317 1 -5.21575 -5.69033 -5.4839
16264 1 -4.81881 -4.8658 -4.87789
6913 1 -5.76268 -5.4574 -4.64033
6921 1 -5.76329 -4.1243 -4.45783
28808 1 -7.05808 -3.72058 -5.8589
10307 1 -5.08779 -3.89182 -5.74637
12402 1 -6.3011 -4.52099 -6.71285
19456 1 -7.0403 -4.33683 -5.49457
5601 1 -6.37859 -6.29144 -4.72181
21312 1 -5.35672 -5.20164 -4.39394
10855 1 -5.25386 -3.57877 -6.66104
16262 1 -4.99108 -4.28795 -5.04973
5625 1 -5.14698 -5.85725 -6.37483
6923 1 -4.76526 -3.69476 -4.70298
24500 2 -5.28236 -6.46476 -4.05803
9870 1 -4.82089 -5.18776 -5.70041
16261 1 -5.14892 -4.09149 -5.06618
15469 1 -4.92959 -4.64061 -5.04603
3069 1 -5.03149 -6.36 -6.64001
31073 1 -6.17694 -6.12754 -3.99688
9252 1 -5.71787 -4.42297 -6.22109
15461 1 -5.45874 -3.69077 -6.70274
10573 1 -5.368 -4.60368 -5.70793
10574 1 -4.89331 -4.41091 -5.08946
24552 1 -5.94378 -4.35383 -6.99144
27372 1 -5.08455 -4.89522 -5.64887
22508 1 -5.30561 -4.41271 -4.36984
6470 1 -5.20813 -4.95261 -6.6511
10570 1 -5.95346 -5.39622 -5.40474
27371 1 -5.30251 -4.46279 -5.97118
29108 1 -5.06257 -6.7938 -3.77013
22507 1 -5.61318 -3.94872 -5.16334
15462 1 -6.15865 -3.85183 -6.90869
9462 1 -5.19928 -3.88664 -4.31571
15467 1 -4.92395 -4.1184 -5.60972
19457 1 -6.51508 -3.97266 -5.87622
6466 1 -6.19085 -4.69723 -5.70188
20754 1 -5.65909 -3.78283 -6.108
28655 1 -5.4066 -5.70748 -4.90858
18919 1 -4.99462 -6.62719 -4.58268
7002 1 -4.77608 -4.24567 -5.58298
12801 1 -5.76697 -3.68462 -6.51825
2023 1 -5.07903 -6.0094 -3.98358
20767 1 -4.91233 -4.51636 -4.19133
29322 1 -4.88871 -6.50029 -6.91688
29303 1 -5.86602 -6.07433 -5.2574
30109 1 -5.96953 -4.27034 -5.47736
2020 1 -5.9844 -4.55443 -4.25227
16266 1 -5.60801 -4.30693 -4.29294
2022 1 -4.94429 -5.67043 -4.77197
11117 1 -6.02687 -5.51 -3.73548
9758 1 -5.83988 -4.4743 -3.71543
22506 1 -6.14954 -4.42745 -3.64116
7061 1 -6.52626 -4.08007 -7.12579
3211 1 -5.21096 -6.69375 -7.13016
5460 1 -7.06787 -6.51185 -7.06526
29461 1 -5.95139 -6.44659 -7.12881
14915 1 -5.24351 -4.50957 -7.04309
4253 1 -5.84004 -6.75366 -7.13008
29318 1 -4.53458 -6.65575 -5.93373
21307 1 -4.23943 -5.51839 -4.30754
29500 2 -2.53414 -6.26519 -5.371
2028 2 -2.61002 -7.10003 -4.22683
29140 2 -3.29445 -6.18188 -5.14407
5627 2 -4.27598 -4.75551 -7.12799
23353 1 -4.43681 -6.48693 -6.92791
25474 1 -2.64376 -6.67634 -5.39561
29111 1 -4.05161 -5.78614 -4.46099
20220 1 -4.68694 -6.13882 -6.8647
1622 1 -4.1236 -6.81619 -5.49426
4975 1 -3.49863 -5.51163 -6.89258
16772 1 -4.40248 -5.00029 -5.63044
6475 1 -2.63381 -6.85629 -5.99857
9869 1 -4.57682 -5.01625 -3.9606
29476 2 -4.10659 -4.38784 -7.02322
2826 2 -4.0561 -7.09465 -3.76469
29141 2 -3.3589 -6.97302 -5.30312
26479 2 -3.21707 -6.76612 -4.46786
31234 2 -2.53752 -4.53349 -5.39478
1624 1 -4.06238 -6.901 -5.511
6474 1 -3.04612 -6.21542 -5.63046
2026 2 -4.36458 -6.64462 -4.89404
10843 2 -2.9449 -5.92814 -5.44108
5624 1 -4.35169 -6.06826 -5.68442
9765 1 -4.44647 -6.9713 -4.16261
29110 1 -4.25913 -6.42543 -4.25903
1626 2 -4.28807 -6.55493 -4.47098
2560 1 -3.33592 -4.45739 -6.98558
29457 1 -3.94564 -5.65623 -6.60641
27242 2 -2.5311 -4.06882 -5.19032
11609 1 -3.58852 -4.08761 -5.68968
23366 1 -4.6326 -6.59724 -6.70805
29499 2 -3.10787 -6.05844 -6.14416
10841 2 -2.76713 -5.64016 -6.5283
7353 1 -3.41669 -5.94316 -6.80065
2828 2 -3.55014 -7.09925 -4.5224
24477 2 -3.5748 -3.60763 -3.81516
7016 1 -3.29805 -3.65409 -6.25762
11610 1 -3.15544 -4.10918 -6.25306
11611 1 -4.07687 -4.02098 -6.1275
2559 1 -3.63334 -4.6611 -6.48457
10321 1 -4.36632 -4.91042 -6.70901
2027 2 -3.30443 -6.98581 -4.45905
7015 1 -3.95849 -4.8537 -6.51657
16771 1 -4.75821 -4.72714 -6.87226
20118 1 -4.72198 -6.46133 -5.23564
13726 2 -2.84969 -4.72979 -5.94729
27241 2 -2.44941 -3.83163 -4.73331
12241 2 -3.02265 -6.52547 -6.25041
2030 2 -2.48381 -7.09379 -5.9112
4825 1 -3.33629 -6.79028 -5.29986
29311 1 -4.38769 -6.50378 -5.15777
3477 2 -2.54188 -6.03239 -6.06576
27249 2 -2.73985 -3.60657 -6.10024
26478 2 -2.88464 -6.875 -5.62996
29138 2 -3.00368 -6.66844 -3.64682
9762 1 -4.63664 -4.73886 -3.96896
26477 2 -2.83792 -6.80409 -5.68942
7022 1 -4.28798 -4.27912 -6.59434
10826 2 -2.47978 -4.79317 -6.48276
29458 1 -4.26329 -6.17633 -6.7608
29460 1 -4.75604 -6.6312 -6.44916
28657 1 -4.55552 -5.14429 -5.27003
28656 1 -4.33767 -5.47999 -5.14562
20758 1 -4.38705 -3.73985 -5.13646
7014 1 -4.50445 -5.17627 -6.08061
2827 2 -3.61721 -7.0658 -3.73191
10824 1 -2.62201 -3.79964 -6.59213
20149 2 -4.21366 -5.3814 -3.72948
3473 1 -4.05021 -6.62125 -5.48992
3204 1 -4.01595 -7.12992 -6.64257
9763 1 -4.03566 -5.73992 -3.86304
16263 1 -4.2748 -5.00645 -5.23903
29320 1 -3.67454 -6.59933 -6.1236
18926 2 -3.87444 -5.32391 -4.71027
4972 1 -4.0912 -4.08847 -6.66225
3541 2 -2.42926 -5.69238 -6.92318
20221 1 -4.55059 -6.26964 -6.69028
29316 1 -4.35864 -6.79543 -5.75494
31099 2 -3.30413 -6.62271 -7.0549
1528 2 -3.71419 -6.16053 -3.76737
3216 1 -4.74747 -7.13881 -5.21732
6479 2 -2.49961 -5.78701 -6.04339
28022 1 -4.19214 -6.93531 -3.66318
3067 1 -4.71746 -6.60478 -5.98002
9277 2 -2.70184 -6.75777 -5.11975
19452 1 -4.69767 -4.85385 -5.34832
29139 2 -3.13144 -5.97231 -4.76407
9283 2 -2.90095 -6.43385 -4.36525
20252 1 -4.69472 -6.07606 -5.85488
9767 1 -4.23529 -6.91711 -5.6393
26474 1 -3.83451 -5.65107 -5.00537
15472 1 -4.27588 -4.89596 -4.77397
31081 2 -3.4319 -6.24938 -3.76032
28752 1 -3.53742 -3.76979 -5.07881
20777 2 -2.64989 -3.64774 -4.49629
5623 1 -4.54405 -6.10885 -6.53069
25476 2 -3.04396 -5.91938 -5.41729
29317 1 -4.44741 -6.83088 -5.44119
9768 1 -4.5119 -6.87794 -4.71028
10306 1 -4.73521 -3.86853 -4.79662
6493 2 -3.51354 -5.6123 -4.32274
27425 1 -3.60188 -5.03602 -3.93469
16282 2 -2.53387 -5.82142 -3.75727
20120 1 -4.75167 -6.21347 -3.70119
2558 1 -4.2778 -3.85294 -5.84994
18934 2 -2.73003 -5.00681 -4.4354
27373 1 -4.686 -4.51084 -6.82949
2829 2 -3.66112 -6.61203 -3.93985
29497 2 -4.50102 -7.00009 -6.95371
15474 1 -3.43676 -4.55489 -5.37217
3536 2 -4.31645 -4.81879 -6.31234
11607 1 -3.46265 -4.74272 -6.2343
1676 2 -3.13147 -4.00959 -4.86654
4586 2 -2.90591 -4.37071 -5.05423
16255 1 -4.41639 -3.60518 -4.18031
27250 2 -2.41053 -4.46925 -6.68379
6494 2 -2.40663 -5.02664 -4.021
6496 2 -2.58801 -4.24386 -4.60978
9761 1 -4.49887 -5.28996 -3.63391
20145 2 -2.91086 -4.86838 -4.94915
27449 2 -3.30129 -4.3827 -6.68475
1582 2 -2.45601 -6.46625 -6.81069
27447 2 -2.38501 -4.929 -6.21727
10827 2 -3.76559 -4.23488 -6.34298
16770 1 -4.55247 -4.62935 -6.80072
24489 2 -2.78956 -4.8575 -4.12703
22510 1 -4.59645 -4.12118 -4.13077
4978 2 -3.80624 -6.94754 -5.99699
9873 1 -4.69152 -6.23673 -4.59988
23778 2 -2.58886 -3.61584 -4.39113
23391 2 -2.52677 -5.18643 -6.7149
4824 1 -3.88752 -6.41294 -5.46609
444 2 -2.87825 -4.31054 -3.75543
26480 2 -3.80595 -6.63631 -4.55042
12242 2 -2.79973 -6.83479 -6.06491
10551 1 -4.25264 -3.93444 -4.56452
20131 2 -3.53154 -6.81677 -3.6536
2551 1 -4.69521 -4.0537 -6.85791
28751 1 -3.52869 -4.37935 -4.9333
4585 2 -2.72499 -4.18083 -4.49313
27448 2 -3.05372 -4.69138 -6.76704
2326 2 -2.5652 -4.15216 -4.76219
31083 2 -2.8029 -6.15716 -3.84744
7021 1 -4.3222 -4.13241 -7.03683
13725 1 -3.52839 -4.02738 -6.13827
27428 2 -3.4893 -5.44124 -4.45102
6492 2 -2.85108 -5.53953 -4.62263
26473 1 -4.02651 -5.16317 -5.72629
18935 2 -2.44665 -4.69676 -4.99926
9874 1 -4.19665 -6.06736 -4.08426
9282 2 -2.70901 -5.96224 -4.51716
447 2 -2.74603 -5.6197 -5.45911
9278 2 -2.39195 -6.70436 -3.60526
18937 2 -2.73544 -4.82361 -3.6249
24577 2 -3.31975 -4.2727 -6.4143
18930 2 -3.48245 -4.33739 -4.23981
10575 1 -4.35189 -4.21918 -5.65622
16043 2 -3.36943 -4.1181 -5.37853
16036 2 -3.51957 -3.63368 -3.91814
6495 2 -2.55748 -4.28203 -4.02032
18938 2 -2.47604 -4.8252 -4.54303
29109 1 -4.70761 -6.71311 -4.10588
29301 1 -4.09887 -5.66063 -4.839
20148 2 -4.3252 -4.63711 -3.76495
3068 1 -4.71508 -5.81377 -6.26881
1627 2 -3.45013 -5.64411 -5.87695
1628 2 -3.52259 -5.86265 -4.63534
11606 1 -3.88125 -4.34836 -6.04585
31082 2 -3.13941 -5.93951 -4.10277
1527 2 -3.67172 -6.50955 -3.71348
1579 2 -3.82374 -6.19449 -6.46246
15231 2 -2.50004 -6.86627 -6.74807
15248 2 -2.57949 -5.30846 -5.17036
24472 1 -4.37213 -3.88876 -4.32483
10303 1 -4.33564 -4.37965 -5.84317
11608 1 -3.39075 -3.80151 -5.39999
3474 1 -3.77557 -6.43016 -5.51088
4582 2 -3.03688 -4.01348 -4.22556
23390 2 -2.51745 -4.72074 -7.12426
27430 2 -2.59185 -5.67733 -4.68461
2323 1 -3.59131 -4.29575 -5.76551
27445 2 -2.53582 -3.99632 -6.10103
3532 2 -3.64679 -5.48259 -5.3558
16779 2 -3.27445 -4.24863 -5.6151
3533 2 -4.05918 -5.51776 -5.94121
15230 2 -2.71047 -6.79454 -6.4128
16774 1 -4.62394 -5.26814 -4.44689
3475 1 -3.42999 -6.03674 -5.19701
3476 2 -3.052 -5.72757 -5.27548
16773 1 -4.05978 -5.13937 -4.98875
4584 2 -3.02423 -4.55395 -4.83323
3530 2 -3.30484 -6.8002 -4.89356
24488 2 -3.14438 -5.21967 -4.16625
4753 1 -4.08455 -4.16719 -3.61223
6473 1 -3.65313 -5.30795 -5.00568
27444 2 -2.40634 -4.05751 -6.11802
26483 2 -3.23571 -6.87386 -4.89711
9871 1 -3.95289 -5.15325 -5.30064
16775 1 -4.26128 -5.35332 -5.00498
1544 2 -2.6274 -5.57034 -3.90411
24487 2 -3.54386 -4.77319 -3.81204
449 2 -3.099 -5.19001 -6.21973
27442 2 -2.6054 -4.91152 -5.60264
15229 2 -2.55111 -6.67915 -6.70681
3534 2 -4.56447 -5.67276 -6.01961
15473 1 -3.86556 -4.38709 -5.46669
3537 2 -3.73912 -6.01745 -6.64295
7001 1 -4.39971 -4.27327 -5.38729
4587 2 -2.42722 -4.30365 -4.85614
24494 2 -2.81778 -5.6971 -4.4781
6478 2 -3.14335 -6.39131 -6.22548
1543 2 -2.92958 -5.52312 -4.07871
29980 2 -3.53211 -3.79076 -3.71423
16284 2 -2.6622 -5.28707 -4.40055
1900 2 -2.61228 -4.66544 -6.27755
20251 1 -4.36225 -5.89266 -5.25167
445 2 -2.90565 -5.25596 -4.28061
27440 2 -2.41436 -5.77024 -5.20464
6929 2 -2.96432 -4.46507 -5.0313
10842 2 -2.39962 -5.96038 -6.04098
16777 2 -3.93776 -4.69416 -4.77755
6926 2 -3.02468 -3.59331 -5.45622
27432 2 -2.51482 -6.1406 -3.92701
26476 2 -2.81539 -6.73625 -4.67436
10311 1 -3.99675 -3.57672 -5.36529
28653 1 -4.63864 -5.26985 -4.26864
10319 1 -4.72474 -4.72074 -6.67215
24497 2 -3.79438 -5.57911 -4.80068
1675 1 -4.31198 -4.44102 -4.79123
15245 2 -3.08627 -5.56492 -6.9243
20129 2 -3.2253 -5.7868 -3.65588
15247 2 -2.98251 -5.55336 -5.46673
2324 1 -3.46052 -4.75328 -5.32186
10302 1 -4.74692 -3.71753 -5.84568
23777 2 -3.68377 -3.7702 -4.83592
10325 1 -2.83043 -3.82951 -5.34709
29321 1 -4.51759 -6.0262 -6.40986
3202 1 -4.01451 -6.27264 -6.32449
450 2 -2.81167 -5.26464 -5.62541
24499 2 -4.71548 -5.99133 -4.31517
16040 2 -3.88736 -3.83506 -6.28823
3212 1 -4.57291 -6.74389 -7.14432
3528 2 -2.73335 -6.28705 -4.62082
9872 1 -4.613 -5.79647 -5.05473
3538 2 -2.81948 -6.23481 -6.93369
24493 2 -2.83922 -5.70812 -4.3358
18925 1 -3.92131 -6.19096 -5.77685
16776 2 -3.91263 -5.3621 -5.14992
6477 2 -3.01575 -6.85859 -6.33615
26475 1 -3.83509 -5.94891 -5.31828
3527 2 -3.25261 -5.08023 -4.52096
24578 2 -2.63582 -3.65742 -6.38625
16778 2 -2.61014 -4.90686 -5.32395
5626 2 -4.2798 -5.29258 -5.65577
6925 1 -4.1215 -3.84587 -5.44265
20759 1 -4.09854 -4.13735 -4.43188
15246 2 -2.79362 -6.03139 -6.48987
6472 1 -3.97066 -5.75554 -5.4314
18928 2 -3.65753 -5.20217 -3.9603
20757 1 -4.45905 -4.16806 -5.55703
10571 1 -4.67548 -5.45728 -5.94499
13732 2 -2.96819 -4.78018 -6.13381
18929 2 -3.33882 -4.7712 -4.02477
18927 2 -4.03597 -5.05576 -4.61303
2327 2 -2.54354 -3.81925 -4.56977
3531 2 -2.92794 -5.18344 -5.60265
448 2 -2.89116 -5.34224 -6.05173
2325 1 -3.30189 -4.65411 -5.15549
18939 2 -2.84382 -4.26635 -4.29986
4823 1 -4.65818 -5.65516 -5.58131
26481 2 -3.18241 -6.24236 -4.57016
3529 2 -3.23977 -6.60221 -4.86668
10320 1 -4.75222 -5.54155 -6.30711
13731 2 -2.99659 -5.73389 -6.03963
18932 2 -3.21716 -4.60261 -4.09341
10310 1 -4.05842 -4.17955 -5.74523
23122 1 -3.26404 -3.83797 -6.34011
27446 2 -2.60994 -3.97393 -6.28941
24498 2 -3.94183 -5.57722 -4.13859
18931 2 -2.94263 -4.37423 -3.66411
15475 1 -3.67126 -5.17617 -5.82925
4757 1 -4.48034 -3.60506 -4.55073
10318 1 -4.28076 -5.13972 -5.54332
16038 2 -3.65775 -3.65899 -6.65036
16041 2 -3.39025 -4.37702 -6.15388
1530 2 -3.25158 -6.00405 -3.74531
18933 2 -3.41935 -4.78589 -3.89954
6737 2 -2.94845 -3.61303 -4.91951
27429 2 -2.41313 -5.37093 -4.58603
3526 2 -3.35864 -5.53825 -3.93988
24495 2 -2.97159 -5.90104 -4.32393
27424 1 -3.92218 -3.73087 -3.62731
15476 2 -3.53408 -3.61074 -6.72841
3524 1 -4.66499 -5.40091 -4.50421
3525 1 -4.27593 -5.63705 -3.79666
24496 2 -2.6503 -5.65222 -4.30832
15468 1 -4.52706 -3.86065 -5.56519
4583 2 -3.19132 -4.16773 -5.12325
26482 2 -3.37472 -6.14197 -4.53204
16042 2 -2.46854 -3.85124 -5.99911
20130 2 -4.09966 -6.01895 -4.36979
4581 2 -4.19875 -4.25197 -4.16529
20125 1 -4.03084 -6.1127 -3.67917
20150 2 -3.4997 -5.69411 -3.6802
27427 2 -3.18139 -5.49606 -3.59261
20147 2 -2.96222 -4.37519 -3.68394
29981 2 -3.92488 -3.57593 -3.79685
9284 2 -3.07648 -7.14334 -3.65465
18196 2 -3.7634 -5.48 -3.57491
29977 2 -3.51064 -3.80536 -3.96165
1531 2 -2.66483 -4.6821 -3.6613
97 2 -2.81704 -5.43988 -3.61523
3073 1 -4.75682 -4.77144 -7.12024
29474 1 -4.23163 -5.5797 -7.09933
2016 1 -4.87956 -6.02584 -2.21187
27021 1 -7.09693 -6.21538 -1.85562
9470 1 -5.372 -5.31724 -2.34639
11107 1 -6.82593 -4.87257 -3.42271
13068 1 -6.76981 -6.23178 -2.11948
27871 1 -5.33941 -6.44594 -1.92262
21958 1 -6.92358 -3.84968 -1.8379
9222 1 -4.82718 -5.33381 -0.78203
11716 1 -6.42142 -5.92305 -0.468459
4553 1 -6.34957 -5.34769 -2.61718
21322 1 -5.29817 -6.23954 -3.24193
2018 1 -5.34786 -5.28732 -2.67448
21015 1 -6.34215 -5.6033 -0.866662
17405 1 -6.27299 -6.32267 -0.985297
4557 1 -5.9086 -5.44481 -2.7582
16901 1 -5.50693 -6.2473 -0.112898
6907 1 -4.8142 -4.49798 -2.23638
9368 1 -5.69347 -6.93822 -2.68084
14360 1 -7.07478 -6.79974 -2.43747
30553 1 -5.84417 -6.76619 -0.397363
30551 1 -5.38536 -7.11937 -0.527453
11719 1 -4.97155 -5.59681 -1.11653
28652 1 -5.03971 -4.93511 -3.29232
11167 1 -6.93826 -6.72633 -0.888054
9221 1 -5.16077 -5.83909 -1.30851
10613 1 -6.41567 -5.94555 -1.05547
13072 1 -5.05297 -4.57705 -2.92063
11111 1 -6.43495 -3.9567 -2.97144
16902 1 -6.15061 -5.58 -0.658926
2019 1 -5.80961 -5.24091 -3.28396
11718 1 -5.94483 -5.55711 -1.31594
13854 1 -4.87981 -6.29396 -1.23167
9367 1 -5.76207 -6.90728 -2.4002
26901 1 -6.30894 -5.46877 -2.12056
4558 1 -5.83645 -5.77648 -3.32892
17407 1 -6.06776 -4.86029 -1.29879
16903 1 -6.41302 -5.19799 -0.537783
9465 1 -6.13016 -3.92528 -2.70889
2013 1 -4.83915 -5.42924 -1.95164
9220 1 -5.45413 -6.11822 -1.9242
17406 1 -6.42127 -5.50477 -0.817947
22756 1 -6.47582 -4.72721 -0.728923
11717 1 -6.07977 -5.78724 -0.47456
21321 1 -4.94313 -6.76822 -3.26408
21951 1 -7.10017 -4.14915 -0.2893
11114 1 -6.06424 -5.03497 -2.50094
13865 1 -5.72348 -7.0774 -1.75807
1668 1 -5.39816 -4.8528 -3.10017
31071 1 -5.82978 -5.55957 -2.43249
21305 1 -5.44466 -6.30332 -2.76521
2012 1 -5.01694 -4.92846 -1.69055
11115 1 -6.42628 -5.66531 -2.43487
13067 1 -5.76268 -5.74232 -2.99463
30554 1 -5.91839 -7.00396 -0.449881
6903 1 -6.10204 -5.70872 -2.69908
23762 1 -7.11858 -4.2988 -1.68635
30714 1 -6.71546 -4.03606 -1.82085
13071 1 -5.2335 -4.77918 -2.56187
2015 1 -5.08392 -5.5772 -2.30903
3558 1 -6.90198 -6.69539 -1.69287
17404 1 -6.97917 -6.52309 -0.716547
4554 1 -6.46055 -5.48228 -2.90263
6908 1 -5.28227 -5.32191 -1.42124
10656 1 -5.17692 -6.68453 -1.61685
14361 1 -6.94132 -6.51591 -3.47847
4576 2 -5.70477 -6.44232 -1.51111
17414 1 -6.58122 -6.14744 -1.52093
8422 1 -5.69629 -6.99275 -0.819239
4551 1 -5.08961 -5.29069 -2.82921
1663 1 -5.63549 -4.54201 -3.18443
21373 1 -4.76765 -4.22945 -2.34905
11113 1 -6.25781 -4.31775 -2.66627
21302 1 -6.81564 -5.98086 -3.37338
4577 2 -5.05339 -6.60262 -1.23894
10606 1 -6.90353 -4.33698 -0.478098
27869 1 -5.12461 -6.94022 -1.92302
31069 1 -6.2432 -6.49718 -1.80537
20764 1 -5.1724 -3.71098 -3.42482
13857 1 -5.53317 -6.23458 -0.552051
8413 1 -6.66243 -6.8937 -3.45885
23211 1 -6.59861 -5.84119 -2.61846
24060 1 -7.06874 -6.91479 -0.797523
23751 1 -6.83884 -6.76741 -2.14323
4568 1 -5.95519 -6.69005 -0.756911
13856 1 -5.23902 -5.86904 -1.34829
23761 1 -7.08428 -4.46658 -2.5392
21323 1 -5.10348 -5.86087 -3.39718
13075 1 -5.54194 -5.0613 -2.48328
21369 1 -5.14862 -3.79453 -2.60037
10612 1 -5.29419 -5.23835 -0.777564
28974 1 -4.93984 -6.7705 -2.9747
6909 1 -5.2767 -5.45342 -1.03186
19409 1 -5.45888 -6.79444 -0.590701
31076 2 -5.63048 -7.10856 -3.2659
2014 1 -5.17339 -4.80565 -2.39511
27868 1 -5.12613 -5.83013 -1.64508
17411 1 -6.08881 -6.73078 -1.64227
9471 1 -4.94441 -4.6124 -2.56431
21107 1 -6.72629 -4.63227 -1.38134
4573 1 -6.36051 -5.66265 -1.30875
4560 1 -6.15089 -5.65586 -0.6981
13855 1 -4.88556 -5.92352 -1.81808
19410 1 -5.38013 -6.47874 -0.575151
12113 1 -5.24067 -4.12759 -0.321683
17401 1 -6.50691 -6.95233 -1.66086
1665 1 -5.1113 -4.43653 -2.50515
21303 1 -6.45192 -6.27394 -3.10579
14367 1 -6.46298 -6.81191 -2.77012
21104 1 -5.74933 -6.09239 -2.11587
31067 1 -6.38351 -6.73911 -2.87423
6917 1 -7.08763 -3.62337 -2.57814
21105 1 -6.86601 -5.88993 -1.3775
29103 1 -6.26777 -6.92914 -1.36541
27057 1 -6.88472 -4.49122 -2.85547
27867 1 -5.38308 -6.50542 -1.39496
6915 1 -5.76313 -5.44975 -3.28956
1664 1 -4.89888 -4.90966 -2.55675
20665 1 -7.11811 -3.68421 -3.2394
1667 1 -5.36877 -3.87492 -1.94641
29107 1 -5.5085 -6.17404 -3.20848
13070 1 -6.24754 -4.98473 -2.85906
3521 1 -5.66501 -6.20935 -3.35342
9468 1 -5.42484 -4.67368 -2.34556
6912 1 -6.36937 -5.48124 -3.08589
11108 1 -6.43419 -5.1393 -2.76388
21016 1 -5.82109 -5.30594 -1.03902
6910 1 -5.65385 -5.87381 -2.03389
21106 1 -6.70925 -5.76303 -1.69331
19411 1 -5.38672 -6.97526 -0.400777
6911 1 -5.70292 -5.94899 -2.75468
9716 1 -6.61493 -4.66109 -0.0232509
2003 1 -4.88231 -4.40384 -1.92338
9469 1 -5.62911 -5.43957 -2.59193
28007 1 -5.66874 -5.8667 -1.2577
10611 1 -5.56696 -3.83557 -0.485359
21102 1 -6.53738 -6.17438 -2.03263
4566 1 -5.96502 -6.41787 -0.522428
2071 1 -5.8265 -4.11246 -3.31179
29101 1 -6.47633 -7.13982 -0.981298
31075 1 -5.72668 -5.92736 -3.43986
2051 1 -6.69186 -5.61944 -3.34215
17413 1 -6.63086 -6.3775 -0.92767
1518 1 -6.43253 -4.87062 -0.439735
1666 1 -5.39739 -4.55679 -2.939
6906 1 -5.62712 -4.48286 -2.30689
13074 1 -5.63272 -4.08072 -1.6349
23769 1 -6.34317 -4.0175 -3.49036
6902 1 -5.21731 -5.25144 -2.90059
6916 1 -5.74286 -5.102 -3.00362
9464 1 -5.20269 -3.71293 -3.31305
4559 1 -6.09108 -5.84609 -0.974528
28967 1 -6.17588 -7.10293 -3.15922
6905 1 -5.03661 -4.7144 -2.70522
1867 1 -6.97869 -4.47074 -1.99506
6904 1 -5.04893 -5.48012 -2.5034
4570 1 -5.47163 -5.46295 -1.51536
26902 1 -6.66438 -4.41778 -2.79061
9467 1 -6.05602 -4.93173 -2.54484
31066 1 -6.88996 -6.44995 -2.70989
419 1 -4.8001 -4.87283 -1.21519
21017 1 -6.02449 -4.77536 -0.971907
1522 1 -5.4246 -5.45623 -1.38542
9458 1 -6.92507 -3.82853 -3.23364
11112 1 -6.127 -4.61824 -2.57827
9466 1 -6.01788 -5.02213 -2.5865
4572 1 -5.75179 -5.25936 -1.55017
6918 1 -6.31921 -4.76276 -3.16193
1204 1 -7.13689 -7.04752 -0.311341
21021 1 -5.25743 -6.2934 -0.554212
21020 1 -4.86645 -4.84359 -1.0979
31068 1 -6.04987 -6.52572 -2.40471
10614 1 -6.97186 -6.00487 -1.58477
13073 1 -6.58658 -4.07447 -2.94047
20766 1 -5.10198 -4.16382 -3.45981
4569 1 -5.99658 -5.87796 -1.76115
31072 1 -6.48306 -6.14883 -3.12734
14969 1 -5.03752 -3.7186 -0.492372
5670 1 -4.80217 -3.64965 -2.10074
28651 1 -5.07139 -4.40933 -2.79499
4571 1 -5.70517 -5.66452 -1.48286
11165 1 -6.87673 -6.6165 -2.12155
4563 1 -6.64815 -5.59618 -2.31141
21019 1 -4.82565 -4.43102 -0.839062
23208 1 -6.64423 -6.89694 -2.93291
23212 1 -6.62319 -6.08748 -2.71818
4552 1 -5.53229 -5.5642 -3.2108
27760 1 -5.85048 -4.14477 -1.27829
5666 1 -6.35981 -4.1679 -0.931927
29106 1 -6.14068 -6.46886 -2.91286
14961 1 -6.6225 -3.6522 -1.43581
23209 1 -6.82011 -6.42667 -3.17078
13853 1 -5.65306 -6.65999 -0.309534
4556 1 -6.04112 -5.29635 -2.42341
23760 1 -7.04793 -4.61079 -2.28797
21301 1 -6.21622 -6.96931 -3.05297
29105 1 -6.81733 -6.96327 -2.26572
10608 1 -6.00907 -5.1043 -0.276174
31077 2 -5.34656 -6.73194 -2.88748
24769 1 -4.96227 -7.08262 -0.793523
4555 1 -6.13918 -5.44037 -2.80618
27755 1 -5.48981 -4.74916 -0.356261
9369 1 -4.94862 -6.23776 -2.08097
2075 1 -4.80657 -3.84696 -2.69491
1205 1 -6.61892 -6.98812 -0.167643
2005 1 -5.54595 -4.62938 -1.21724
23210 1 -7.07402 -6.09216 -2.68111
24469 1 -5.58237 -3.72762 -3.27671
1669 1 -5.6501 -3.98443 -3.50982
25364 1 -6.36399 -4.58626 -0.242085
6901 1 -5.32449 -5.44982 -2.47672
21568 1 -7.05527 -6.91594 -0.716607
21366 1 -6.28843 -3.90683 -2.15
2017 1 -5.53753 -5.559 -2.12554
21103 1 -6.11315 -5.85765 -2.47753
5668 1 -5.26008 -3.88951 -1.1123
28604 1 -5.4687 -3.77615 -0.265653
22966 1 -4.78354 -4.29467 -0.998392
19414 1 -4.8565 -5.88515 -0.442428
13069 1 -6.67027 -5.23537 -2.52819
14556 1 -5.97148 -5.40138 -0.000737163
31070 1 -6.62833 -6.58257 -2.85602
13154 1 -6.8828 -4.13659 -3.01847
1662 1 -5.37227 -4.80183 -3.14453
22525 1 -4.84634 -5.52785 -2.90723
9371 1 -4.99084 -5.27313 -2.21663
21368 1 -6.30215 -3.92843 -1.5406
3158 1 -4.9472 -5.08038 -0.361385
28018 1 -5.18558 -5.70114 -1.56028
1866 1 -6.75848 -4.20897 -0.75246
28605 1 -5.86522 -3.58427 -0.901156