ITEM: TIMESTEP
2360000
ITEM: NUMBER OF ATOMS
10000
ITEM: BOX BOUNDS pp pp pp
0.0000000000000000e+00 1.4938015821857213e+01
0.0000000000000000e+00 1.4938015821857213e+01
0.0000000000000000e+00 1.4938015821857213e+01
ITEM: ATOMS id type x y z
1371 1 4.36728 0.830037 3.06192
6084 1 4.84649 4.73794 1.88979
7619 1 2.544 4.96744 1.18355
3408 1 6.78784 1.69404 0.922748
3738 1 4.89389 0.305229 0.178738
4238 1 6.66959 0.780767 0.541645
4231 1 0.377958 2.80134 2.40889
1795 1 0.403884 0.377984 0.839706
4596 1 2.5065 0.481131 1.44818
8554 1 6.30169 0.186753 3.45371
1534 1 7.30102 3.65016 1.23191
7052 1 6.48043 0.535553 0.769303
3961 1 4.93977 4.84928 1.06798
5452 1 1.93577 1.67499 3.44307
3237 1 1.67322 1.88856 1.85851
6487 1 2.45435 0.805987 0.0970242
3506 1 3.99821 2.98587 1.32226
2076 1 6.13744 1.03803 2.99859
9910 1 6.17351 1.83172 2.56333
4892 1 3.87906 2.94663 0.334639
9613 1 1.84497 2.55126 3.56378
3439 1 0.140026 0.205733 2.57284
8068 1 5.31135 4.46441 2.83321
1755 1 7.025 1.68512 3.55492
3475 1 3.08063 0.817387 0.0777782
7013 1 1.22386 0.254312 3.2664
9769 1 4.24857 2.79052 0.828992
4397 1 2.91544 0.875127 2.95161
5203 1 4.24657 2.72234 1.37721
5547 1 1.51222 0.296682 2.87502
1894 1 0.474335 3.67081 0.0679673
6207 1 6.2728 3.89492 1.04229
4802 1 0.251963 4.62508 1.40518
9362 1 5.07219 1.39486 2.01106
3718 1 4.40862 1.43497 1.24507
1669 1 4.60837 2.24083 1.41146
3513 1 5.66262 3.62994 0.491384
4011 1 3.62931 5.03498 0.75259
6399 1 6.6573 3.29812 1.2956
1322 1 2.94124 0.152242 1.20352
8709 1 5.64179 1.90989 1.67103
3655 1 3.61591 4.86362 1.78325
7083 1 1.15163 2.60624 1.30906
6018 1 0.21006 0.493006 2.83338
3878 1 1.3826 1.88164 3.47857
6700 1 3.55542 -0.0184143 1.0198
3588 1 2.29919 1.27038 2.93401
1782 1 1.42947 0.877861 0.398808
2704 1 7.04142 1.09262 1.72526
1903 1 2.80616 2.19129 2.67718
4158 1 5.12458 0.227847 1.96412
4027 1 0.917315 1.71789 3.19653
8222 1 2.00719 2.23923 1.29109
4970 1 5.52951 0.516021 2.364
7647 1 6.85041 3.20722 2.73724
7275 1 3.16548 4.54097 2.70009
7021 1 1.22296 4.00399 0.837208
6823 1 4.63474 4.64805 2.22318
6212 1 4.00105 0.302353 2.0663
2857 1 7.12253 4.3565 3.50753
6547 1 0.626104 0.175038 2.8529
9291 1 3.87953 0.58508 0.367509
5328 1 2.69129 1.05182 1.69568
4040 1 6.85315 2.77324 1.70785
7662 1 4.86307 2.29026 3.10618
8131 1 2.56778 4.89733 1.83566
1350 1 2.13531 3.57669 0.88109
3786 1 0.12733 2.07471 3.13879
2026 1 0.73837 4.30584 1.43754
5394 1 2.48532 4.45584 1.72819
7218 1 6.90689 1.72964 2.80102
1213 1 6.41994 1.63735 0.0790481
1236 1 4.69407 3.52846 2.52062
3873 1 5.35048 0.872333 1.18188
1367 1 5.60289 3.4842 2.58152
2646 1 3.60189 3.50104 3.1428
2923 1 1.9585 0.13139 0.565372
2917 1 5.48904 2.47857 2.26586
5634 1 0.196111 2.60109 0.926036
5378 1 6.71022 2.85741 0.708451
5512 1 6.5896 3.23748 1.81467
6462 1 6.88021 0.133728 1.01575
1808 1 0.934543 3.14636 3.6482
3968 1 0.449871 1.79089 3.02888
4543 1 7.18101 4.45182 0.218647
4595 1 7.23243 1.64713 0.281039
5430 1 2.40245 4.13798 2.3181
3285 1 2.07874 3.09662 1.76608
8079 1 4.69272 0.0567994 0.390443
8333 1 0.632336 2.33406 1.72614
4138 1 1.47867 1.92321 2.06672
3627 1 6.96511 0.351026 1.74373
7028 1 3.64169 3.58247 1.45233
8263 1 4.68847 1.52998 0.123189
2778 1 4.25567 0.398589 2.38059
8144 1 4.13672 0.0247446 1.77239
9495 1 7.04344 4.76813 1.18211
1301 1 7.25548 3.77782 1.39122
4587 1 4.37543 2.4793 1.74362
9497 1 4.33584 4.72531 1.57102
6662 1 2.21367 1.5663 0.627615
7388 1 2.7997 3.18866 1.9851
6414 1 0.614959 1.66175 1.77191
9104 1 4.40704 3.22685 3.72975
3949 1 4.55509 0.643797 3.68312
1579 1 6.14707 4.59545 0.337258
9418 1 6.07378 4.30199 1.02652
3927 1 1.30806 3.77126 2.20071
4752 1 6.57113 3.0423 3.47558
4035 1 3.65323 0.525542 2.22176
3432 1 0.808419 0.604407 1.05008
5274 1 3.94862 5.0318 0.973316
6553 1 0.957674 4.55064 3.6962
2565 1 2.98326 1.45276 2.65854
4847 1 2.74876 0.190981 0.301832
1234 1 4.68803 2.74963 2.72887
7313 1 0.35307 4.03182 2.94296
6482 1 4.29962 1.93426 0.645815
5375 1 7.04164 0.0630059 2.87252
3554 1 5.10721 0.256167 1.96276
9813 1 4.13065 1.04457 2.11114
4602 1 1.71166 0.109835 3.2221
8408 1 3.03406 3.44444 2.88445
9094 1 7.3761 4.487 3.57245
4024 1 3.45739 2.58332 1.04976
1719 1 2.21219 0.602931 0.174733
6412 1 3.06804 0.114179 0.161801
9097 1 2.5696 4.34757 2.11215
2348 1 1.30508 3.74699 0.663108
5655 1 4.5186 4.65909 2.73831
4528 1 2.60725 2.38227 2.15403
1539 1 1.32597 2.08171 2.34838
8869 1 1.71766 2.15777 0.831669
3354 1 3.21144 2.72624 2.81597
3436 1 3.00178 1.48992 3.76293
6131 1 4.38467 2.16409 3.08467
9144 1 5.70286 4.99092 1.24093
3740 1 6.14482 4.02162 1.2265
3116 1 4.90374 4.70116 1.69626
8158 1 5.05865 1.35773 2.09434
6312 1 7.22133 1.44386 0.857276
3029 1 2.4001 1.99605 1.99579
2614 1 1.09661 3.91552 2.36983
6846 1 5.76162 3.0662 2.43457
5376 1 4.95508 1.0547 1.7648
5081 1 6.85107 1.40772 2.82976
2821 1 0.404041 1.49642 2.80106
9386 1 5.72759 4.48166 3.56153
1343 1 6.13801 0.220969 0.927453
8663 1 4.11613 2.17774 3.47082
9752 1 3.90249 2.91469 2.61321
2356 1 6.15388 0.657025 2.11076
7544 1 0.659221 3.03044 1.51598
5523 1 3.8949 1.97302 0.239925
3489 1 0.579304 4.79148 1.92498
7588 1 0.366243 1.01552 2.04937
2271 1 6.76429 2.18043 2.80357
4515 1 6.96974 1.04779 3.03612
9611 1 0.424442 0.646698 1.60976
9502 1 0.29705 4.47087 0.318999
3999 1 5.53633 1.14521 1.75549
1933 1 5.0862 3.09376 3.64599
4453 1 5.12681 2.09127 2.51498
5743 1 3.07529 3.66206 2.08584
5953 1 5.24061 3.29773 3.19656
9989 1 6.52366 4.15558 2.78952
8510 1 4.85536 5.07562 3.56084
1564 1 1.1201 2.04756 0.920989
1467 1 1.62935 4.42872 3.44919
5042 1 3.73978 4.6329 2.46232
8060 1 2.37127 0.265804 3.30751
5796 1 2.69998 0.930535 1.42455
1787 1 5.9555 4.88907 3.15684
5423 1 5.09589 3.05961 0.521099
4985 1 6.82521 2.97119 2.73297
5819 1 2.30523 1.84762 2.10861
4503 1 7.0387 3.04604 1.12874
8370 1 2.66002 0.135312 2.15833
7226 1 1.05075 0.78624 3.15258
4992 1 6.76958 4.06818 1.94515
6347 1 2.62497 4.7503 3.47443
7485 1 5.71571 1.82327 0.881818
6102 1 5.2186 4.10764 0.92937
7738 1 2.09791 1.54424 2.63724
4918 1 7.12555 2.86481 2.71734
4813 1 1.07687 4.31739 1.26634
4668 1 3.66124 1.74732 2.31399
2246 1 7.21077 -0.0266031 -0.0068547
9471 1 0.448264 2.07606 3.03832
5990 1 7.20458 1.50092 3.43891
9430 1 1.73843 3.20322 1.94297
5869 1 5.23691 1.9856 0.739512
7325 1 2.01441 3.64463 0.328546
5010 1 3.16948 4.72678 0.228606
9227 1 1.72631 3.04712 2.92132
5085 1 1.51403 0.997379 3.07909
1733 1 5.63805 3.64726 3.38085
7132 1 0.797676 2.97808 1.33197
5381 1 1.32131 2.10514 0.858825
7171 1 0.508181 3.84467 2.96973
1394 1 6.69748 1.62308 0.335951
1349 1 1.7241 2.63697 1.02677
6532 1 6.77675 3.18667 2.28602
8921 1 6.30799 1.75861 2.30414
9939 1 5.29737 3.2893 3.08
2299 1 2.44534 0.471091 1.46557
4084 1 5.57392 3.13513 1.39811
1941 1 0.775553 0.718392 1.55081
5631 1 1.60139 3.75132 2.45519
6351 1 2.82044 4.36734 3.0149
7048 1 6.49731 3.28965 2.77335
3535 1 2.17983 4.48174 3.00862
9916 1 6.73678 2.56547 0.0200627
4436 1 7.06344 4.31796 3.14809
6611 1 2.63402 1.28553 0.753875
4687 1 0.935542 2.66701 3.68252
5344 1 2.52718 1.62319 1.23862
1779 1 6.65617 2.77789 2.59966
8335 1 4.18884 0.945533 1.10012
2575 1 3.22815 4.02055 1.72166
7734 1 4.16254 0.540156 0.742717
6072 1 6.79326 2.54486 0.289848
3906 1 6.82379 2.65345 3.09811
1283 1 3.63649 2.37572 2.09978
7456 1 3.61762 1.88266 1.43419
7877 1 6.33976 1.54846 0.96446
2625 1 1.26072 3.64788 1.76039
9298 1 6.24485 4.52478 1.59923
1530 1 5.13764 3.07185 2.66473
1612 1 6.89456 2.18923 2.55902
6096 1 1.99785 1.94726 3.03566
7103 1 4.27175 2.02209 2.43873
7351 1 4.33016 3.63583 1.30287
6971 1 0.341024 2.84843 0.101675
5021 1 0.839206 3.27321 2.55713
5466 1 1.4178 3.66441 3.17774
7415 1 2.50902 0.672162 0.151442
2978 1 5.09527 3.23801 3.55366
8020 1 0.948653 4.39399 1.79427
7189 1 4.52097 3.31074 0.554651
5789 1 6.75287 4.28475 1.84679
2570 1 1.78584 1.56917 1.86499
9338 1 1.03165 1.41602 1.31522
9688 1 4.24948 4.21879 2.84259
3033 1 4.5585 3.86397 1.94508
6521 1 1.82298 4.17309 0.453366
2868 1 3.94599 3.48972 3.2737
4120 1 0.338056 3.77207 3.68458
1786 1 3.82457 4.96464 1.6217
4430 1 6.8736 1.96232 1.71371
8336 1 4.91111 2.15746 -0.0726851
6659 1 1.65106 3.30045 1.00279
8726 1 2.92094 1.81606 0.311119
2834 1 3.04539 3.15628 0.628065
3398 1 0.911756 4.74702 3.6082
6228 1 6.65062 3.02219 0.485462
6897 1 7.1674 0.764806 3.79543
5449 1 6.21914 3.72461 0.552488
1362 1 7.42314 0.849439 1.73759
8608 1 6.57903 4.75175 1.76888
2991 1 1.91613 3.75202 3.47492
6213 1 1.22834 1.52344 0.433331
7972 1 0.0357248 4.86832 2.70077
8846 1 7.28689 3.5466 0.253649
7732 1 1.36613 2.25164 0.690351
7699 1 3.01601 2.99128 3.13409
6919 1 7.22394 1.77974 1.13937
1923 1 2.80874 2.74961 0.868795
2255 1 2.101 3.52636 3.20091
4932 1 6.0254 2.02297 2.48651
5732 1 2.95275 2.87692 1.4013
5104 1 2.83025 4.97255 2.56393
2465 1 1.56469 0.0605416 0.138819
5382 1 4.54847 2.06653 3.27255
1471 1 5.85638 1.28512 2.25209
2548 1 2.16969 2.21394 -0.150096
8261 1 3.65677 2.13676 2.91678
8743 1 4.45377 4.33988 0.680899
6829 1 0.95543 2.0391 3.03523
3926 1 5.83732 1.07621 0.841034
1331 1 0.337883 2.94651 3.15408
4662 1 6.4992 2.71931 1.61148
6012 1 2.98953 4.04669 0.0594011
1841 1 3.2646 3.30765 2.34314
1836 1 5.75032 4.77792 2.56576
2759 1 4.09087 3.28257 1.88798
9408 1 6.88913 4.87441 1.91347
1329 1 3.00901 1.95104 0.964884
2942 1 4.3509 4.78543 2.52151
2536 1 3.28259 2.56154 3.31145
9913 1 1.70961 3.7512 0.151161
3817 1 3.21456 0.826344 2.46093
2117 1 5.40924 2.9669 1.78904
2628 1 5.5733 1.48477 0.404143
9403 1 0.766124 4.66568 2.02045
5283 1 7.25792 3.88818 0.566969
9527 1 4.7523 0.323744 0.584974
3157 1 4.21536 3.94152 1.39151
6060 1 4.8008 1.18294 2.44104
3907 1 0.864207 2.44423 2.36185
2387 1 3.90345 3.97161 0.338707
5064 1 7.41895 2.41536 0.470227
8250 1 5.1082 3.309 1.73638
9623 1 0.995651 4.69777 0.740497
8475 1 3.52172 1.60513 1.69899
9717 1 3.94745 4.87657 0.590428
6178 1 -0.0646591 2.63886 1.59543
3037 1 3.08366 1.87573 0.238053
1660 1 4.51719 0.421276 3.35916
9481 1 4.10236 2.79999 1.57874
6525 1 3.58735 1.51084 1.69518
5177 1 7.22088 3.04549 3.67393
7312 1 1.36968 4.21567 1.14327
2341 1 6.45196 1.43052 0.179706
3809 1 4.70007 1.02046 2.83302
9240 1 5.27075 2.02053 1.16382
8600 1 2.34866 1.56038 1.91487
6513 1 3.55854 3.1102 3.2945
7613 1 0.537532 1.09709 1.05595
1212 1 6.83528 4.58176 1.10177
5358 1 2.19023 2.8728 3.43264
8087 1 2.73317 0.118995 2.08474
7809 1 6.18725 2.75279 2.93337
9487 1 0.164499 0.742848 2.52583
6252 1 1.22949 4.0835 1.03846
4384 1 5.04287 2.82135 1.27803
6559 1 2.14392 3.24118 0.187958
9416 1 3.62234 4.25892 0.401012
2149 1 3.75198 0.840703 2.05996
2713 1 6.94311 1.08017 3.2725
5938 1 2.03016 1.08928 3.50818
9780 1 3.6618 3.269 2.3752
3301 1 5.0298 4.56195 2.72535
1257 1 1.21973 2.36298 2.23541
2230 1 1.39484 1.17192 1.00294
4870 1 2.66607 3.69959 1.17942
8736 1 2.49764 0.988836 1.06477
1956 1 3.84396 4.78728 2.21828
5054 1 5.18828 4.55977 2.55805
9893 1 7.18352 4.99546 1.1097
6064 1 1.4394 2.96235 0.953302
9968 1 7.08965 4.28054 2.39989
2028 1 6.22772 1.00314 2.11774
6793 1 2.51902 1.3661 0.141083
6143 1 3.71996 1.83891 3.33077
6310 1 6.17105 2.69786 1.63963
6227 1 3.56936 4.82652 0.267403
3329 1 1.84555 0.668352 2.50848
8281 1 4.58015 3.25701 1.50991
7182 1 0.34469 2.01814 0.17908
9369 1 5.84055 1.41499 0.529224
2155 1 0.784093 4.18513 1.04779
8932 1 1.96276 4.03332 2.72018
1454 1 2.93226 3.89381 1.78
6391 1 4.87773 1.9777 2.67242
2168 1 7.24279 0.281035 0.225156
7088 1 2.80484 0.645161 2.65198
8710 1 1.03862 3.57115 3.0761
4308 1 1.17004 0.790826 1.24398
6214 1 2.82043 0.949157 2.5195
8764 1 3.71727 0.149981 1.45538
2741 1 5.83051 4.18336 0.0675146
7802 1 4.27982 3.98398 1.45956
6609 1 0.569543 1.51411 0.0695442
6541 1 3.20372 3.66486 -0.0281923
3298 1 4.025 0.472476 0.319759
5650 1 5.11616 1.93286 2.60333
9088 1 5.0491 3.45376 1.34533
7694 1 5.5418 4.11281 0.599157
7570 1 6.67327 0.4947 2.86443
7087 1 2.15026 3.25776 3.07162
6105 1 1.51951 2.861 2.92424
9193 1 4.78813 1.46991 2.152
4976 1 5.58555 1.80775 1.31926
9914 1 5.66914 3.38644 2.85718
1920 1 4.55195 3.59838 0.0555588
6035 1 2.61913 3.40953 0.760316
7928 1 3.44713 2.98179 0.130247
4516 1 6.28112 0.51249 1.92722
1346 1 5.5763 0.0841231 2.34224
5653 1 1.57279 0.729489 2.97666
6701 1 0.767978 3.41116 2.50203
3538 1 3.36561 0.424792 2.46527
6726 1 2.67027 2.79569 3.73739
8264 1 6.88127 2.28229 1.41324
2902 1 1.95087 -0.13446 2.69203
1895 1 1.01338 4.4345 1.95149
1390 1 1.29587 4.61376 2.74861
3871 1 5.56361 1.12152 2.67524
2831 1 5.35186 4.12712 3.57773
2439 1 3.83443 1.79391 3.11502
5113 1 1.17397 0.989973 3.59257
4514 1 2.81752 0.957844 3.43317
8174 1 5.79059 1.43268 3.29096
9783 1 7.04046 0.375777 3.48714
7257 1 3.09325 1.22104 3.09776
3393 1 3.29889 1.16404 3.65374
7900 1 1.36591 3.05021 3.18005
2988 1 4.24545 1.51535 3.58859
3682 1 0.898386 3.43173 0.187026
1400 1 5.3508 1.58383 0.0366864
4926 1 4.61247 4.59153 0.441702
3361 1 4.40036 0.0770918 0.58358
2636 1 1.02059 0.61033 0.0991428
5495 1 7.24947 2.033 0.554512
4915 1 5.62659 2.73524 0.0793984
4781 1 2.41899 2.42179 4.25098
4671 1 2.01023 3.81066 5.64008
8126 1 1.98158 2.78515 5.48085
1869 1 0.10906 0.87116 6.44442
1099 2 5.56546 0.231556 6.10622
1339 1 7.61447 4.44935 5.46267
5924 1 0.501984 3.63695 7.20178
3086 1 1.30018 4.35997 4.32147
479 2 3.44805 0.0597314 6.91092
7481 1 6.39376 1.84906 6.03257
7039 1 6.24852 2.39954 5.15317
3980 1 1.33162 4.45544 4.83481
6342 1 1.03953 0.0950338 5.42654
4846 1 0.915299 4.15172 5.26267
6807 1 0.134981 1.32493 5.84609
5941 1 1.76803 0.389895 5.87098
2380 1 6.59811 3.11832 4.7281
1279 1 7.21903 2.03041 5.84937
6570 1 1.03125 4.54616 6.44899
8856 1 0.436892 2.07796 6.62766
161 2 5.39936 1.40933 5.96357
1193 2 7.40882 0.297275 6.21637
5622 1 0.684922 3.56017 6.32102
3721 1 1.63031 0.142313 6.81013
9903 1 1.13197 0.885793 3.94013
2577 1 5.65556 2.39816 4.45139
6389 1 3.46165 0.202647 6.20377
1638 1 0.311384 0.169463 5.58964
1277 1 0.236217 0.14681 5.90686
6063 1 1.35486 4.30245 5.90684
7986 1 0.161496 3.83092 3.61568
1581 1 7.60011 0.9854 4.54867
5437 1 3.80875 5.05378 6.56167
8287 1 0.314007 3.01107 3.97475
7582 1 0.924172 0.144749 6.6387
8727 1 2.55929 0.739551 5.61267
6885 1 3.98122 1.43328 6.55334
9682 1 1.259 3.13526 4.65256
9226 1 0.159371 4.43869 6.56938
4080 1 1.44667 1.3913 5.75875
5151 1 1.90555 3.78321 4.80815
7377 1 1.185 1.87982 5.70959
5764 1 0.854077 1.76018 6.95021
9155 1 4.94278 1.50082 4.66034
9342 1 0.734371 3.31804 6.29407
1666 1 0.0185326 4.36839 5.21843
1360 1 2.77127 3.40247 4.1553
1245 1 3.32715 4.63753 5.84281
3932 1 3.65076 1.48055 6.69103
155 2 6.95735 2.86091 6.8097
2337 1 5.86801 2.03637 6.81465
6461 1 2.97709 2.14653 6.04006
6476 1 6.96792 0.599816 4.67169
2965 1 2.03907 0.24976 6.10649
6998 1 4.13213 2.83344 4.70372
3861 1 4.16417 4.56283 4.97727
6634 1 0.823155 1.30912 6.29776
4265 1 6.83165 0.0687931 5.17431
1404 1 4.93946 1.9225 3.99857
3213 1 6.28212 3.80806 4.6774
8875 1 1.41675 3.41536 5.40792
5100 1 1.70007 0.911417 5.21412
3950 1 1.83275 4.11793 4.6454
4223 1 4.87242 2.60918 7.34108
6539 1 5.35958 2.81967 5.22728
8241 1 6.4195 2.7106 5.28299
8815 1 3.44621 0.800282 6.13121
2350 1 0.726114 3.99752 7.12349
5907 1 2.37577 3.06503 5.28785
6463 1 1.86665 -0.0628403 4.23401
6872 1 0.374713 2.18461 7.41964
971 2 5.61119 0.97261 4.95037
6046 1 1.96499 1.95848 3.9424
1637 1 0.877004 3.47009 5.46303
7620 1 5.01444 0.574019 4.75261
3618 1 0.770133 4.73493 4.77706
2385 1 6.72741 3.53872 6.62401
9212 1 2.62359 2.0357 5.42687
7643 1 6.35604 3.05944 6.07033
7284 1 6.67167 1.92466 4.39052
3018 1 0.0860314 3.68095 6.61433
6345 1 5.91742 3.40603 6.11293
4175 1 4.29394 3.01179 4.86919
4533 1 2.16363 4.17888 4.0984
6017 1 1.56204 3.79151 5.51603
3365 1 0.322247 1.76258 6.21806
970 2 6.00188 0.309402 5.30746
9257 1 2.12854 0.941392 4.07504
8019 1 0.471068 4.82469 4.23402
8928 1 4.70818 2.79119 5.97296
5094 1 7.53096 0.256892 4.41913
974 2 4.82528 2.12242 5.67358
7374 1 4.66988 0.467055 4.91748
7589 1 3.17622 2.96723 4.71445
9110 1 5.48293 0.0642942 5.05402
9384 1 5.78047 2.9133 6.25093
4830 1 0.590181 0.212624 7.41688
9926 1 7.30992 1.00793 3.85057
6272 1 5.679 1.55425 4.62056
9091 1 3.11916 4.26692 5.05729
3815 1 6.86777 1.04997 6.04353
8326 1 6.41151 3.95818 4.6372
8605 1 5.8477 3.01329 4.30718
5264 1 6.15053 2.59701 4.31137
6990 1 3.88126 0.307357 4.04035
4872 1 4.50872 5.09807 4.64513
4510 1 2.40857 1.38455 5.10072
4647 1 2.98227 2.02734 4.20365
5968 1 6.53006 1.41002 7.00448
162 2 6.89678 2.12654 6.19304
665 2 6.14312 0.668226 7.32857
9986 1 1.69539 4.8028 6.1908
8119 1 1.40544 4.45621 6.27257
4640 1 3.082 0.305431 5.18569
163 2 6.63158 1.44826 5.96782
1618 1 4.97043 1.44026 5.5489
6798 1 3.8028 0.996445 4.62236
8894 1 5.63348 2.77486 6.26437
973 2 5.88898 1.17931 5.39209
154 2 6.81887 2.66282 7.27607
4424 1 0.175519 3.49536 5.21065
8262 1 7.29575 3.23024 5.17722
4235 1 5.93924 3.27019 4.66941
4015 1 5.90988 0.405447 3.89574
4230 1 2.34682 3.28106 4.27211
9467 1 1.10018 3.17393 4.52924
3826 1 7.05781 0.0807927 5.57465
3953 1 2.84102 0.524183 7.22866
3792 1 2.03777 2.89396 4.32196
7872 1 2.19952 4.87749 4.18129
159 2 7.38571 1.67458 6.90145
2195 1 6.93276 1.99182 4.6732
9579 1 1.92259 1.16555 6.95752
8587 1 2.45663 2.42395 4.90335
5689 1 6.04447 1.24099 4.98261
6918 1 1.35564 2.42215 5.3061
979 2 5.08952 2.28695 7.39548
2101 1 0.489062 1.02497 5.58755
4190 1 1.42513 3.90267 6.82411
978 2 4.16529 2.42461 6.67181
2484 1 1.26356 4.94864 5.93908
8867 1 2.73986 2.69481 5.90623
9167 1 4.69377 1.24507 3.78615
972 2 5.90981 0.581441 5.00711
1479 1 3.12223 3.89448 5.87213
977 2 4.26677 2.8158 5.95621
8922 1 1.58107 2.27874 7.06463
2679 1 5.92853 3.70773 6.87078
8085 1 0.942694 0.643136 7.28899
4750 1 6.33788 3.67719 5.28446
8682 1 5.23251 4.15066 6.24727
9163 1 2.70203 1.43911 4.17971
8429 1 0.814029 4.80158 7.18545
7489 1 6.5044 1.03989 5.07104
4947 1 3.92756 3.43737 7.41613
4526 1 4.63266 4.22338 6.96354
976 2 4.62687 2.87252 6.77869
7253 1 2.98787 0.346893 4.27424
4376 1 0.384499 4.81956 5.42256
8851 1 2.84216 0.974109 6.3844
1179 2 5.65215 1.28618 7.27781
9002 1 2.35751 0.198893 6.44187
8276 1 7.05895 4.89974 6.82528
1180 2 5.83036 0.384705 6.56829
1597 1 6.41193 1.00942 5.32834
8744 1 6.47392 0.135489 3.85211
4302 1 2.91947 4.84848 7.49211
2240 1 0.974732 3.60314 4.00297
1899 1 7.19802 4.12252 5.46295
8155 1 5.46028 3.51806 7.28972
3067 1 5.46867 4.55355 4.33148
164 2 5.63875 0.970374 6.51168
9392 1 5.69769 1.97205 6.71722
4406 1 4.91222 0.880569 5.55709
2384 1 4.12184 2.08498 4.92209
6934 1 2.11439 1.15386 4.41187
7669 1 5.01795 4.37151 4.14715
6234 1 5.65009 3.67177 4.80322
4763 1 6.61994 4.71726 6.19447
5712 1 3.38567 1.46762 3.81144
9262 1 1.92479 3.50951 5.42692
8694 1 3.56658 4.87341 6.91711
2354 1 3.63142 1.68128 5.60201
3511 1 5.03877 3.26169 4.37963
6335 1 3.24902 4.34751 5.96122
6878 1 4.10332 4.10981 5.36637
5314 1 2.89968 1.09865 5.15972
6523 1 0.721765 0.914339 5.58488
2862 1 3.57158 2.78332 7.14081
4879 1 5.41581 3.29494 5.90657
4409 1 3.86878 3.50696 4.87503
8973 1 0.777677 2.99771 5.55738
1613 1 4.95574 4.13045 5.11883
1947 1 4.43897 0.52894 6.03745
5706 1 5.81824 4.85295 6.13173
3124 1 0.48838 2.48712 3.69018
3821 1 5.60484 2.47715 4.14469
1181 2 4.92041 0.322135 6.65345
2022 1 4.68086 -0.00425344 4.38116
1676 1 7.20185 3.45014 5.71911
7119 1 2.14598 3.03458 5.98324
1383 1 6.23166 4.83611 5.82679
6868 1 6.84572 1.16871 3.86771
9792 1 4.64556 2.64254 6.24732
1182 2 4.8013 1.27588 7.08649
4222 1 7.07771 3.37497 4.2918
5245 1 7.19546 2.53926 5.40679
9901 1 5.42035 1.99716 4.12216
7240 1 3.92456 0.900075 4.94111
3992 1 3.44658 0.593694 6.00574
5062 1 6.94112 2.46775 5.77546
3185 1 4.32927 0.467913 4.29957
1417 1 3.06851 2.68241 4.14395
7501 1 1.0476 4.02202 5.88085
3649 1 2.93346 3.68277 7.18546
8602 1 6.87715 2.24467 3.97568
7439 1 6.87619 4.0822 7.4255
8255 1 2.35026 4.89579 4.19671
2686 1 2.7005 1.34799 7.10704
6291 1 5.27592 2.28213 5.74584
3440 1 6.38114 3.05016 3.74867
6371 1 0.315089 3.50786 6.93682
3090 1 7.26552 2.67395 5.03195
5759 1 0.196756 1.6243 4.55681
3176 1 1.14212 0.788464 7.25342
664 2 5.52929 0.715767 6.94446
2884 1 6.04171 0.913644 4.04269
9835 1 4.6973 3.13062 4.58579
8014 1 2.65908 4.30214 5.00594
6584 1 2.97053 4.1542 7.07521
3637 1 2.22705 3.66345 7.47012
5490 1 3.24297 4.14836 3.98139
9249 1 3.18808 4.596 6.75204
8039 1 7.14138 3.68006 7.17298
9868 1 2.43235 0.562853 5.18064
3318 1 6.14184 2.34868 3.56342
7725 1 3.6043 1.42658 4.07069
2046 1 0.835205 2.58842 4.73457
7280 1 0.879484 1.46652 4.62743
4206 1 2.16153 3.80233 4.82122
6989 1 3.94756 1.92955 5.73124
3960 1 6.98518 3.39353 6.37645
8714 1 3.13584 0.560904 4.84808
5536 1 6.84388 4.086 4.60864
6297 1 0.323503 0.432996 6.003
6230 1 4.47932 3.67994 6.54399
7937 1 2.64996 4.46993 5.51466
2416 1 2.52095 4.85264 5.07702
7980 1 6.50828 3.82768 4.56165
3917 1 5.66507 4.0566 3.78727
6875 1 4.73893 1.42137 6.24664
7908 1 1.28367 1.4902 6.64223
4464 1 1.02599 2.59355 5.91088
9641 1 1.64161 5.11485 5.66135
1604 1 6.40305 0.108423 6.81944
6086 1 5.17295 4.59801 6.27901
7396 1 6.09809 3.72139 6.38864
9816 1 7.16319 3.69756 6.01555
5434 1 4.32543 4.27318 5.40288
6940 1 4.4605 4.79813 5.60971
9656 1 3.04413 4.72014 3.73566
6386 1 1.44938 2.98101 6.50592
9972 1 0.353987 1.5958 6.67398
9202 1 1.00871 2.58825 5.10776
7262 1 0.70697 1.2968 5.04999
7577 1 5.52106 4.62098 4.25828
8934 1 0.0650811 2.42933 6.98389
7183 1 0.503643 0.902151 6.05924
3666 1 0.725777 3.67621 4.22285
2661 1 2.4995 1.08483 6.73137
7454 1 5.3132 1.20932 4.5328
26 2 7.33162 2.20841 7.05206
5711 1 1.91673 0.977517 6.04382
7622 1 2.98903 2.44383 5.63916
2270 1 3.70472 4.62211 6.88452
160 2 6.56723 1.15799 6.6821
1028 2 6.6006 2.08208 7.25219
1074 2 3.62593 1.97575 7.10861
8771 1 3.95921 1.27793 5.16983
902 2 3.76914 2.30697 7.14008
8550 1 3.99559 2.27908 4.96224
8481 1 6.04612 4.12199 6.044
6914 1 3.11418 3.47507 6.43875
7172 1 0.0391937 4.70571 5.3348
5459 1 2.22089 3.79764 6.40664
7335 1 7.27276 0.407124 6.33024
460 2 7.21429 1.28894 6.156
4722 1 4.48488 2.1866 4.58989
2583 1 2.30432 4.96311 5.12338
8030 1 3.05169 0.152754 4.68616
903 2 3.47764 1.52533 7.34292
1435 1 0.107342 3.39521 4.94331
2119 1 1.4997 4.65742 7.37747
8808 1 3.59809 1.27943 5.53159
9459 1 7.24084 1.87973 5.16202
3181 1 2.48534 2.16987 4.59508
4990 1 5.50478 4.59496 5.91752
25 2 7.37024 2.6282 6.88431
23 2 6.81734 1.66763 7.4371
4164 1 3.84161 3.80719 6.83493
6093 1 4.46729 4.22843 5.55662
785 2 1.25276 1.51153 7.06077
4103 1 2.33586 1.47618 6.99974
1960 1 4.84464 2.8887 4.31949
7231 1 3.6218 3.48036 5.45537
7831 1 7.22225 4.23309 7.3134
6794 1 3.93865 1.82246 5.5308
4311 1 2.76493 0.154829 6.36723
2492 1 0.517399 3.04681 4.55658
3939 1 3.15078 1.43398 5.92382
4057 1 6.08742 2.82429 7.0439
1833 1 6.53415 1.98328 3.74956
5217 1 0.0503031 4.43611 5.41397
9462 1 2.32295 0.726256 5.95711
4180 1 2.30985 3.07204 6.62603
9819 1 4.23428 3.65544 6.56602
2647 1 0.134374 4.93083 5.01744
8877 1 4.98644 0.950705 4.16124
6041 1 5.10187 4.47512 6.62865
2292 1 6.10486 3.07578 4.46344
5479 1 1.59527 2.0943 3.77962
3867 1 5.04521 4.73431 5.07223
975 2 5.49122 2.27726 5.69096
4691 1 1.09521 0.168307 4.77782
4704 1 2.8159 4.18178 5.06874
8980 1 2.39242 2.24942 6.33611
5262 1 5.25432 1.76513 6.45743
8514 1 6.53717 2.61065 5.47943
9380 1 3.94517 2.59601 6.8641
9950 1 2.14834 3.93383 6.32609
9786 1 5.21942 0.461311 4.19822
2722 1 6.07641 4.65181 4.0222
3140 1 2.64211 3.39596 3.77653
6401 1 3.06721 3.09486 5.80141
783 2 1.84555 1.46282 6.83194
7653 1 2.45729 2.72535 6.24283
6777 1 1.16131 3.68821 6.06678
7828 1 4.46586 1.33418 5.14674
5936 1 4.06576 2.28945 5.19929
9857 1 5.90657 4.62906 5.34807
2617 1 3.81202 2.90689 5.06813
6241 1 5.97795 4.64834 7.27848
1485 1 4.47303 2.28215 6.19953
2742 1 5.73531 2.11524 3.76902
6158 1 2.83047 2.27453 4.39596
1184 2 5.35379 1.86251 6.44617
3291 1 3.39437 1.43897 5.19652
8138 1 4.01858 4.23343 6.00678
3770 1 5.74482 0.315295 5.86393
5573 1 1.68502 1.26353 5.3665
4840 1 2.4485 4.66132 4.9807
3595 1 2.00037 3.39903 6.47002
477 2 4.35394 0.741886 5.97707
2847 1 4.86013 0.995109 4.56161
4116 1 0.551962 1.21672 3.74544
1500 1 2.52974 1.68759 6.08934
24 2 6.9777 2.18736 7.28639
2071 1 2.6099 3.13876 6.96204
9620 1 0.467165 2.0969 5.72529
7496 1 5.55229 1.84139 3.83937
9364 1 4.46061 3.62771 4.31097
7320 1 5.34069 0.584662 6.14034
1835 1 0.782757 1.93993 4.39917
7830 1 4.77798 3.42393 5.66283
3106 1 2.19805 3.19788 4.52605
1183 2 5.02479 1.08437 7.05104
3065 1 7.11935 1.81281 4.31353
1507 1 4.64681 2.46959 4.29737
3296 1 6.43765 0.582133 4.00284
708 2 4.28101 0.0800035 6.9138
2691 1 2.55336 2.33975 4.52372
2569 1 3.38077 3.82539 6.3751
784 2 0.939821 1.61186 6.02472
8291 1 2.55746 5.02941 4.35643
6245 1 1.88162 1.70593 4.87213
2451 1 3.63521 3.60465 4.34235
6408 1 2.17635 0.334795 3.78351
8715 1 5.03747 3.23284 4.35397
791 2 3.5157 0.988083 6.13871
8470 1 4.35926 4.41925 7.12879
8254 1 5.85512 2.80455 5.74616
8669 1 0.825454 1.0025 4.71941
2458 1 2.52416 2.89246 6.36692
786 2 1.71944 2.00887 7.38299
9009 1 0.428535 4.65348 7.06876
3218 1 0.556024 3.75452 4.53888
7229 1 1.17442 2.97551 5.85303
5224 1 1.74939 1.81774 5.84931
1187 2 5.91645 0.638793 7.33615
8611 1 4.94833 4.47976 6.61164
1185 2 4.95605 1.8073 6.46984
7475 1 1.43366 2.65795 6.29584
5288 1 6.32013 3.79167 6.57745
1165 2 5.78503 2.52114 7.35124
6631 1 0.158822 1.5254 7.44615
4385 1 1.52804 4.143 7.0145
4253 1 6.47436 4.05721 7.23976
9546 1 5.68789 4.93191 7.29867
3326 1 3.95167 4.91196 7.22733
9401 1 3.4605 3.72223 7.21338
1627 1 7.43713 4.1338 6.93942
7775 1 4.12989 3.26907 6.85437
1166 2 6.14529 1.227 7.38287
8244 1 2.10602 2.4338 7.24929
1978 1 3.80811 0.898051 3.90603
5095 1 6.80533 4.24921 3.84035
1357 1 4.56114 0.261737 3.77656
6497 1 5.63568 1.03655 4.51397
8758 1 5.51112 2.80474 3.88497
1520 1 5.00871 1.64963 4.11416
4060 1 6.39034 2.45031 4.27915
5837 1 4.1077 3.14451 3.79873
1087 3 6.30157 0.301621 10.8621
7842 1 1.39178 1.57659 9.37586
998 2 7.06831 1.76348 9.13502
585 2 3.56431 3.2656 9.55887
917 3 5.44706 0.230719 9.98482
18 2 5.43317 1.01286 8.42231
3765 1 2.21439 3.78773 10.0028
132 2 6.63975 2.20275 10.5312
2460 1 0.864557 4.2412 10.2463
832 3 6.82103 0.942513 9.71222
1035 2 6.76246 0.194901 8.22128
915 2 5.31885 1.90682 8.59489
429 2 1.52651 0.328745 10.4093
6029 1 0.805943 0.307341 9.20328
7418 1 1.39612 3.14691 7.9406
4279 1 7.40233 4.74443 9.1344
1169 2 6.91249 1.24581 9.05725
9632 1 0.316532 0.297622 8.31178
15 2 4.90512 0.642084 10.7008
4546 1 0.641103 2.46105 9.77651
916 2 4.81334 0.672642 9.19644
1770 1 4.05601 4.03571 11.176
1086 2 6.23781 1.65377 10.9327
8269 1 6.81186 4.44184 8.28811
1189 3 6.22569 0.117272 9.06051
7451 1 0.0937226 3.05261 7.86329
722 2 3.53866 0.869563 10.0501
7049 1 2.81685 1.40144 9.11627
1027 2 7.34179 1.47816 8.87854
4807 1 2.32752 2.99845 9.0972
5729 1 3.43885 2.05878 10.37
9079 1 0.318292 1.22522 7.61215
3041 1 0.296955 3.34688 10.8437
7843 1 1.22906 3.78985 9.73169
1685 1 1.83177 3.98131 10.4751
9873 1 4.55448 3.85293 8.3012
883 3 6.22134 0.11487 10.9048
1167 2 6.15544 1.18042 8.19833
1022 2 5.96834 2.20972 9.50609
221 3 5.79094 1.09407 10.2974
1188 2 5.9376 0.350031 7.86862
7780 1 1.11799 1.69221 8.16763
9561 1 1.19024 4.41986 7.94104
390 3 6.74204 0.424361 10.7668
1567 1 1.31801 4.02718 8.60534
1251 1 1.33481 1.95908 10.6009
3843 1 1.38386 0.0375671 8.55737
7054 1 1.14568 1.77419 8.32187
3938 1 1.88951 2.2326 8.49664
9415 1 2.58675 4.6951 8.80242
451 2 2.60652 0.978954 9.24486
909 2 5.80214 0.0396805 7.68934
992 2 6.07187 3.41063 8.76054
2334 1 2.71138 4.80335 8.05452
3158 1 0.163514 2.6391 9.46586
1168 2 6.60646 1.02735 9.1583
8421 1 0.523706 4.42611 11.0591
11 2 4.57149 1.70377 9.43926
9272 1 1.93688 3.05296 8.24625
833 3 5.79704 1.24653 10.1759
912 2 4.21449 0.988026 8.79661
8417 1 2.00624 3.02742 8.59359
288 3 6.35652 0.686487 9.31304
8197 1 0.877051 4.18145 10.3551
2516 1 7.44545 4.12377 8.00772
3377 1 1.01122 4.61826 9.2868
725 2 3.57817 0.839275 8.5237
1164 2 5.55549 2.45679 8.69843
7420 1 1.06545 4.93982 8.97763
1550 1 2.05647 0.739521 7.63407
2947 1 0.64414 0.248974 9.56361
9865 1 1.12723 0.857499 9.70178
1190 3 6.29764 0.52678 9.92365
9675 1 7.40523 3.39359 7.85752
908 2 6.86586 0.206144 7.62172
449 2 2.54565 2.43152 10.4729
728 2 4.56762 0.55531 9.13901
20 2 5.75301 1.5681 8.96554
914 2 3.90671 1.49836 8.31691
2688 1 2.4161 4.35284 10.8428
6789 1 0.441869 2.78177 7.84332
2832 1 2.38406 0.724035 7.93759
4271 1 5.41367 4.62233 7.67257
4303 1 4.88272 2.61303 10.4663
984 2 5.07334 0.668166 8.77092
1425 1 2.35188 0.319379 10.0826
995 2 7.02481 2.43269 8.91405
4681 1 2.72408 1.72309 8.65328
4333 1 0.179116 4.68158 9.14574
997 2 6.50646 1.98541 9.30968
135 3 6.97882 1.80343 11.1963
361 2 1.90454 1.32044 9.973
9666 1 5.91083 2.72824 7.65406
8954 1 4.73583 3.98332 7.66785
3778 1 0.699156 3.8013 10.0939
440 2 4.08138 0.937462 9.02232
450 2 3.22274 2.21044 9.54655
985 3 6.03493 1.57072 9.43269
9597 1 3.62985 4.87955 8.61193
358 2 2.39889 2.99134 7.5239
452 2 3.03968 0.231617 9.49518
788 2 2.83884 1.30025 8.00485
934 3 5.76809 0.624665 10.992
364 2 2.83379 1.74895 10.2957
1084 2 6.01679 2.38175 9.875
996 2 6.55888 2.0174 9.5327
365 2 2.2239 0.725059 10.337
35 2 4.3775 0.36734 10.181
988 2 6.03562 2.71854 8.51194
913 2 3.8933 0.653411 8.06711
362 2 1.74997 1.02811 10.0565
2812 1 0.331802 4.62319 10.3194
8627 1 0.942987 3.13625 8.80752
994 2 6.67707 2.43915 8.70616
5624 1 2.03439 2.49077 9.77685
911 2 4.30272 1.77983 9.04845
933 2 5.04166 0.306402 10.9334
3143 1 5.98434 2.64204 7.90885
9683 1 3.27205 2.59434 9.65896
359 2 2.68567 2.03034 7.78846
5525 1 3.33035 0.197858 7.64599
1081 2 5.9433 2.72034 10.2082
9442 1 1.02563 1.10952 9.7214
1080 2 5.68143 3.52059 10.2303
727 2 3.80224 1.37765 8.5996
607 2 4.71514 0.31535 10.6561
5824 1 0.948966 4.3235 9.00965
4864 1 7.1213 4.78048 8.23846
368 2 3.50578 0.0575221 9.38723
1036 3 6.66558 0.213066 9.09842
8829 1 -0.0337505 3.26395 9.70552
1174 2 4.659 0.511419 8.48945
7633 1 0.438925 3.64507 8.57833
1173 3 6.10256 0.477642 9.05987
5680 1 4.50735 3.98853 9.72695
905 2 4.87133 0.573218 7.61942
27 2 7.03487 2.3653 7.73614
16 3 5.49951 0.391949 9.86722